/*--------------------------------*- C++ -*----------------------------------*\
  =========                 |
  \\      /  F ield         | OpenFOAM: The Open Source CFD Toolbox
   \\    /   O peration     | Website:  https://openfoam.org
    \\  /    A nd           | Version:  9
     \\/     M anipulation  |
\*---------------------------------------------------------------------------*/
FoamFile
{
    format      ascii;
    class       volVectorField;
    location    "1100";
    object      U;
}
// * * * * * * * * * * * * * * * * * * * * * * * * * * * * * * * * * * * * * //

dimensions      [0 1 -1 0 0 0 0];

internalField   nonuniform List<vector> 
82200
(
(4.8767 -0.00015597 5.13062e-05)
(4.8814 -0.000159114 4.84397e-05)
(4.88602 -0.000156687 1.08971e-05)
(4.89052 -0.00014912 -3.80981e-05)
(4.89493 -0.000141135 -5.06506e-05)
(4.89944 -0.000142546 -3.61558e-05)
(4.90426 -0.000155672 3.60838e-06)
(4.90928 -0.000169814 1.92793e-05)
(4.91417 -0.000169368 1.08338e-06)
(4.91869 -0.000152362 -3.66136e-05)
(4.92296 -0.000135055 -3.78436e-05)
(4.92743 -0.000136891 -6.54774e-06)
(4.93236 -0.000155752 2.62917e-05)
(4.93761 -0.000175026 2.52074e-05)
(4.94257 -0.00017239 -6.48465e-06)
(4.947 -0.000148014 -3.39575e-05)
(4.95127 -0.000130532 -4.04448e-05)
(4.95582 -0.000138577 -1.80416e-05)
(4.96083 -0.000161596 2.38803e-05)
(4.96606 -0.000177115 3.04298e-05)
(4.97093 -0.0001682 2.13754e-05)
(4.97535 -0.000144403 5.20912e-06)
(4.97976 -0.000134817 -3.40875e-06)
(4.98452 -0.000148079 1.23334e-05)
(4.98957 -0.000165958 3.87331e-05)
(4.99464 -0.000170374 4.82212e-05)
(4.9994 -0.000159367 4.46787e-05)
(5.00391 -0.000146205 1.01293e-05)
(5.0085 -0.000144567 -3.71467e-05)
(5.01327 -0.000150827 -5.04652e-05)
(5.0181 -0.00015445 -3.50512e-05)
(5.02291 -0.000154184 2.82751e-07)
(5.02768 -0.000155144 1.42119e-05)
(5.0325 -0.000159948 -5.06398e-06)
(5.03728 -0.000160291 -2.76874e-05)
(5.04184 -0.000147807 -1.94021e-05)
(5.0463 -0.000134848 2.81087e-05)
(5.05092 -0.000140443 5.83081e-05)
(5.05593 -0.000162016 4.39143e-05)
(5.06122 -0.000179591 -2.24371e-05)
(5.0661 -0.000167976 -6.05046e-05)
(5.07041 -0.000135475 -5.65045e-05)
(5.07455 -0.000117236 3.25239e-05)
(4.8767 -0.000157272 3.42113e-05)
(4.8814 -0.000160028 2.99148e-05)
(4.88601 -0.00015585 -7.67172e-06)
(4.8905 -0.000146256 -4.20396e-05)
(4.89493 -0.000139196 -4.74953e-05)
(4.89946 -0.000143311 -2.38903e-05)
(4.90426 -0.000157772 1.59186e-05)
(4.90927 -0.000170101 1.85794e-05)
(4.91417 -0.000166315 -1.21065e-05)
(4.91872 -0.000147861 -4.92383e-05)
(4.92301 -0.0001337 -4.90049e-05)
(4.92749 -0.000140636 -1.56093e-05)
(4.93242 -0.000162105 2.07596e-05)
(4.93764 -0.000178507 2.4478e-05)
(4.94258 -0.000170656 1.81225e-06)
(4.94701 -0.000144061 -2.1544e-05)
(4.95129 -0.000129108 -1.72977e-05)
(4.95585 -0.000140543 7.94564e-06)
(4.96086 -0.000163975 2.26461e-05)
(4.96607 -0.000176833 1.7066e-05)
(4.97094 -0.000165773 4.67133e-06)
(4.97536 -0.00014275 -2.19791e-06)
(4.97979 -0.000135675 2.29548e-06)
(4.98453 -0.000150432 1.54912e-05)
(4.98958 -0.000167383 2.46056e-05)
(4.99463 -0.00016997 3.00006e-05)
(4.99939 -0.000158011 2.38408e-05)
(5.00391 -0.000145052 -3.07631e-06)
(5.0085 -0.000144198 -3.20963e-05)
(5.01325 -0.000151281 -3.8789e-05)
(5.01808 -0.000155515 -1.90867e-05)
(5.0229 -0.000155436 1.04165e-05)
(5.02769 -0.000155608 1.266e-05)
(5.03251 -0.000158769 -1.45576e-05)
(5.03727 -0.000157923 -3.35979e-05)
(5.04183 -0.000146376 -1.88775e-05)
(5.0463 -0.000136076 4.38131e-05)
(5.05095 -0.000143407 7.25778e-05)
(5.05597 -0.000163959 4.34247e-05)
(5.06122 -0.000178306 -3.31707e-05)
(5.06608 -0.000164492 -6.54817e-05)
(5.07043 -0.000133987 -4.03137e-05)
(5.07454 -0.000118109 4.05545e-05)
(4.87672 -0.000155452 2.73233e-05)
(4.88144 -0.000159774 1.50618e-05)
(4.88607 -0.000157306 -1.8535e-05)
(4.89056 -0.000147374 -3.77128e-05)
(4.89497 -0.0001392 -3.66981e-05)
(4.89949 -0.000142567 -1.19524e-05)
(4.90429 -0.000157474 2.08792e-05)
(4.9093 -0.000171395 1.85106e-05)
(4.91421 -0.000169209 -1.42072e-05)
(4.91875 -0.000149609 -4.64144e-05)
(4.92302 -0.000132962 -5.6093e-05)
(4.92749 -0.000138373 -3.15476e-05)
(4.93245 -0.000159627 1.14482e-05)
(4.93768 -0.000176947 2.77833e-05)
(4.9426 -0.000170718 1.22555e-05)
(4.94702 -0.000145961 -1.87306e-05)
(4.95129 -0.000131258 -2.03696e-05)
(4.95584 -0.000141308 5.47744e-06)
(4.96087 -0.000163625 2.92508e-05)
(4.96609 -0.000175859 2.73448e-05)
(4.97094 -0.000164703 5.10499e-06)
(4.97537 -0.000142191 -1.49348e-05)
(4.97979 -0.000135452 -1.38859e-05)
(4.98454 -0.000149959 9.0851e-06)
(4.98959 -0.000166773 2.58651e-05)
(4.99466 -0.000169832 3.19118e-05)
(4.99942 -0.000158321 2.57796e-05)
(5.00394 -0.000145521 -5.58788e-06)
(5.00852 -0.000144082 -3.06383e-05)
(5.01327 -0.000150545 -3.22639e-05)
(5.0181 -0.000154962 -1.15265e-05)
(5.02293 -0.000155977 1.26315e-05)
(5.02774 -0.000157066 1.00273e-05)
(5.03256 -0.000159544 -1.69002e-05)
(5.0373 -0.000157157 -3.20189e-05)
(5.04184 -0.000145327 -1.34235e-05)
(5.0463 -0.0001366 4.63121e-05)
(5.05097 -0.00014522 6.78299e-05)
(5.05603 -0.000165487 3.026e-05)
(5.06128 -0.000176973 -4.08404e-05)
(5.06608 -0.000161135 -6.24147e-05)
(5.07035 -0.000130936 -2.41066e-05)
(5.07455 -0.000119642 4.42542e-05)
(4.87675 -0.000158154 1.85164e-05)
(4.88146 -0.000160417 2.73901e-06)
(4.88608 -0.000155348 -2.31987e-05)
(4.89057 -0.000144688 -3.37318e-05)
(4.89499 -0.000137835 -2.74665e-05)
(4.89952 -0.000143312 -7.42729e-06)
(4.90432 -0.000159418 1.09286e-05)
(4.90935 -0.000173099 -4.07969e-06)
(4.91425 -0.000168751 -3.26207e-05)
(4.91877 -0.000146506 -4.08296e-05)
(4.92303 -0.000130368 -4.31294e-05)
(4.92752 -0.00013886 -1.77172e-05)
(4.93249 -0.000163057 1.2329e-05)
(4.93773 -0.000180754 1.7286e-05)
(4.94264 -0.00017211 -5.39651e-06)
(4.94704 -0.000143763 -2.30078e-05)
(4.9513 -0.000127614 -1.51314e-05)
(4.95586 -0.000139522 2.11068e-05)
(4.9609 -0.000165026 3.68232e-05)
(4.96612 -0.000178457 3.16188e-05)
(4.97098 -0.000165956 5.34843e-06)
(4.9754 -0.000141164 -1.13656e-05)
(4.97981 -0.000133563 -6.46288e-06)
(4.98456 -0.000149383 9.42485e-06)
(4.98962 -0.000168528 1.82874e-05)
(4.99469 -0.000172323 2.03288e-05)
(4.99946 -0.000159349 1.2394e-05)
(5.00398 -0.000144369 -5.79639e-06)
(5.00855 -0.000142034 -2.24943e-05)
(5.01329 -0.000149907 -2.47001e-05)
(5.01812 -0.000156354 -7.86117e-06)
(5.02297 -0.000157695 1.29464e-05)
(5.02779 -0.0001572 1.13093e-05)
(5.0326 -0.000157494 -1.22941e-05)
(5.03733 -0.000154607 -2.81419e-05)
(5.04186 -0.0001445 -1.4367e-05)
(5.04634 -0.000138407 3.20881e-05)
(5.05103 -0.000148005 5.00751e-05)
(5.0561 -0.000167229 1.2967e-05)
(5.06131 -0.000176058 -4.07933e-05)
(5.06609 -0.000159054 -5.25478e-05)
(5.0704 -0.000130962 -1.51025e-05)
(5.07457 -0.000120663 4.27338e-05)
(4.87672 -0.00015732 1.1153e-05)
(4.88145 -0.000161173 1.53139e-06)
(4.88607 -0.000156497 -4.09488e-06)
(4.89057 -0.000144586 -3.33337e-06)
(4.89497 -0.000135922 7.70185e-07)
(4.89949 -0.000141563 -2.88308e-06)
(4.90431 -0.000160332 -1.43417e-05)
(4.90939 -0.000176911 -3.70235e-05)
(4.91429 -0.000171601 -4.52636e-05)
(4.91875 -0.000146013 -3.5174e-05)
(4.92299 -0.000127635 -2.90708e-05)
(4.92749 -0.000136438 -1.93254e-05)
(4.93249 -0.000162931 -5.52075e-06)
(4.93774 -0.000182109 4.46519e-06)
(4.94266 -0.000172493 6.88751e-06)
(4.94706 -0.00014193 8.789e-06)
(4.9513 -0.000125632 1.34741e-05)
(4.95586 -0.000140338 1.70357e-05)
(4.96092 -0.000168051 1.39922e-05)
(4.96614 -0.000180614 6.79152e-06)
(4.97098 -0.000165269 3.01941e-06)
(4.97538 -0.000138868 4.0121e-06)
(4.9798 -0.000132218 3.95595e-06)
(4.98455 -0.000149953 -1.39373e-06)
(4.98962 -0.000169543 -5.36805e-06)
(4.99469 -0.000172355 1.91955e-06)
(4.99946 -0.000158476 1.44393e-05)
(5.00399 -0.000143729 1.59084e-05)
(5.00857 -0.000141927 8.77958e-08)
(5.0133 -0.000149512 -1.55563e-05)
(5.01812 -0.000155492 -1.0362e-05)
(5.02297 -0.000157504 1.17598e-05)
(5.02781 -0.000158258 2.02672e-05)
(5.03263 -0.000159087 7.06968e-06)
(5.03735 -0.00015546 -2.03365e-05)
(5.04187 -0.000144485 -2.32139e-05)
(5.04633 -0.000137783 1.08279e-06)
(5.05104 -0.000147526 1.82566e-05)
(5.05612 -0.000166726 -3.06926e-06)
(5.06133 -0.000174625 -3.94075e-05)
(5.06608 -0.000157634 -4.65406e-05)
(5.07038 -0.000131565 -9.68285e-06)
(5.07458 -0.000123317 3.73853e-05)
(4.87669 -0.000157999 -1.26972e-05)
(4.8814 -0.000159678 -1.33763e-05)
(4.88603 -0.000155293 7.35935e-06)
(4.89053 -0.000145731 3.09984e-05)
(4.89494 -0.00013866 3.47488e-05)
(4.89946 -0.00014401 6.43043e-07)
(4.9043 -0.000160165 -5.26978e-05)
(4.90938 -0.000174353 -7.52817e-05)
(4.91428 -0.00016897 -6.30095e-05)
(4.91873 -0.000145552 -5.43903e-06)
(4.92299 -0.000129039 1.90342e-05)
(4.92751 -0.000137522 8.69892e-06)
(4.93251 -0.000162416 -2.33344e-05)
(4.93776 -0.000181505 -3.14508e-05)
(4.94268 -0.000173578 -6.74939e-06)
(4.94707 -0.000144256 3.31428e-05)
(4.95132 -0.000126668 4.09101e-05)
(4.95587 -0.00013874 1.68565e-05)
(4.96091 -0.000165524 -1.84228e-05)
(4.96612 -0.000179621 -2.07025e-05)
(4.97097 -0.000166645 8.953e-06)
(4.97538 -0.000140799 3.0225e-05)
(4.9798 -0.00013283 2.33417e-05)
(4.98454 -0.000149109 -1.36538e-05)
(4.9896 -0.000168598 -3.19977e-05)
(4.99467 -0.000172096 -1.6073e-05)
(4.99945 -0.000158732 2.62053e-05)
(5.00399 -0.000144131 3.93347e-05)
(5.00857 -0.00014262 2.13868e-05)
(5.01329 -0.000150112 -1.2458e-05)
(5.0181 -0.000155613 -1.7809e-05)
(5.02295 -0.000156703 2.06195e-06)
(5.0278 -0.000157282 1.95121e-05)
(5.03262 -0.000159116 7.58273e-06)
(5.03733 -0.000156633 -1.8769e-05)
(5.04184 -0.000145321 -2.36613e-05)
(5.04632 -0.000137082 -3.45475e-06)
(5.05104 -0.000145946 7.02202e-06)
(5.05613 -0.000165634 -1.55153e-05)
(5.06132 -0.0001754 -4.99717e-05)
(5.06605 -0.000158862 -5.42761e-05)
(5.07033 -0.000131283 -9.57021e-06)
(5.07454 -0.000121914 4.08295e-05)
(4.87667 -0.000155674 -5.37903e-06)
(4.88138 -0.000157131 1.01305e-05)
(4.886 -0.000153672 2.44344e-05)
(4.89052 -0.000146699 2.80223e-05)
(4.89493 -0.000141838 1.80365e-05)
(4.89945 -0.00014761 -1.3117e-05)
(4.90429 -0.000160681 -4.22488e-05)
(4.90936 -0.00017109 -5.39351e-05)
(4.91424 -0.000165694 -4.02013e-05)
(4.9187 -0.000145476 -2.76562e-06)
(4.92298 -0.000132715 1.85967e-05)
(4.92751 -0.00014101 8.76704e-06)
(4.93249 -0.000161123 -1.65174e-05)
(4.93773 -0.000176208 -2.61038e-05)
(4.94265 -0.000169383 -5.18721e-06)
(4.94707 -0.000145797 3.18264e-05)
(4.95134 -0.000131977 4.14281e-05)
(4.95588 -0.000142192 1.81183e-05)
(4.9609 -0.000164054 -2.7111e-05)
(4.96609 -0.000175739 -3.60793e-05)
(4.97094 -0.000165152 -1.00243e-05)
(4.97537 -0.000143474 2.57163e-05)
(4.9798 -0.000136202 2.8176e-05)
(4.98454 -0.000148928 -7.17053e-06)
(4.98957 -0.000164806 -3.27762e-05)
(4.99463 -0.000168501 -2.07363e-05)
(4.99942 -0.000158765 2.75111e-05)
(5.00398 -0.000146928 4.39933e-05)
(5.00856 -0.000144869 2.63472e-05)
(5.01327 -0.000149988 -7.55581e-06)
(5.01807 -0.000154291 -8.67853e-06)
(5.02293 -0.000156002 2.0174e-05)
(5.02778 -0.000157404 3.1354e-05)
(5.03261 -0.000159117 4.66206e-06)
(5.03732 -0.000156704 -3.97306e-05)
(5.04182 -0.000146129 -4.42177e-05)
(5.0463 -0.00013857 -6.98414e-06)
(5.05103 -0.000146678 1.93434e-05)
(5.05613 -0.000164294 -8.78649e-06)
(5.06131 -0.00017287 -6.37938e-05)
(5.06603 -0.000157934 -8.22312e-05)
(5.07032 -0.000132826 -2.6307e-05)
(5.07453 -0.000123994 5.01706e-05)
(4.87668 -0.00015519 -4.24807e-06)
(4.88139 -0.000159284 8.67198e-06)
(4.88602 -0.000157428 2.33856e-05)
(4.89052 -0.000148458 2.55111e-05)
(4.89492 -0.000139788 1.17046e-05)
(4.89944 -0.000143484 -2.63634e-05)
(4.90429 -0.000158344 -4.76803e-05)
(4.90937 -0.00017206 -5.18743e-05)
(4.91425 -0.000168278 -3.43015e-05)
(4.91869 -0.000146856 8.00569e-06)
(4.92296 -0.000131733 3.10434e-05)
(4.92749 -0.000138741 2.95996e-05)
(4.93249 -0.000160204 6.69946e-06)
(4.93773 -0.000177502 -1.57188e-05)
(4.94265 -0.000171784 -1.55374e-05)
(4.94706 -0.000147369 6.95344e-06)
(4.95132 -0.000131619 2.30328e-05)
(4.95588 -0.000140689 1.19165e-05)
(4.96091 -0.000162696 -2.11168e-05)
(4.9661 -0.000175463 -3.37064e-05)
(4.97094 -0.00016543 -1.52505e-05)
(4.97538 -0.000143548 2.04754e-05)
(4.97982 -0.000135897 2.93844e-05)
(4.98456 -0.00014867 3.64485e-06)
(4.98959 -0.000165093 -2.68315e-05)
(4.99464 -0.000169431 -2.18769e-05)
(4.99943 -0.000160036 2.07882e-05)
(5.00399 -0.000147501 3.99801e-05)
(5.00857 -0.000144156 2.50827e-05)
(5.01326 -0.000148625 -7.24851e-06)
(5.01806 -0.000153737 -9.40806e-06)
(5.02292 -0.000157997 1.8906e-05)
(5.02778 -0.000160636 3.18543e-05)
(5.03261 -0.000160702 6.20491e-06)
(5.0373 -0.000154287 -4.14657e-05)
(5.04179 -0.000141647 -4.73555e-05)
(5.04628 -0.000135698 -6.18442e-06)
(5.05104 -0.000147732 2.58311e-05)
(5.05616 -0.000167626 2.74993e-06)
(5.06133 -0.000174141 -6.76224e-05)
(5.06602 -0.000156494 -0.000100819)
(5.07032 -0.000131151 -3.57039e-05)
(5.07454 -0.000124037 4.80386e-05)
(4.87667 -0.000154834 -4.56224e-06)
(4.88137 -0.000157469 -7.54594e-07)
(4.88598 -0.000155272 1.02179e-05)
(4.8905 -0.000148192 1.55216e-05)
(4.89491 -0.000142077 8.57185e-06)
(4.89944 -0.000145942 -1.0372e-05)
(4.90428 -0.000158054 -2.42688e-05)
(4.90934 -0.00016875 -2.60275e-05)
(4.9142 -0.000164288 -1.13999e-05)
(4.91865 -0.000145469 1.23598e-05)
(4.92296 -0.000134369 2.11542e-05)
(4.92749 -0.000142915 1.67451e-05)
(4.93248 -0.000162422 4.97304e-06)
(4.9377 -0.000175912 -1.16842e-05)
(4.94261 -0.000168053 -1.61734e-05)
(4.94703 -0.00014461 -8.78783e-07)
(4.95131 -0.000132187 1.48312e-05)
(4.95588 -0.00014281 1.50991e-05)
(4.9609 -0.000163523 -5.8601e-06)
(4.96608 -0.000174438 -2.48037e-05)
(4.9709 -0.000164376 -1.39432e-05)
(4.97535 -0.000144518 1.87892e-05)
(4.9798 -0.000137663 3.19901e-05)
(4.98455 -0.000148876 9.76264e-06)
(4.98957 -0.000162773 -2.29819e-05)
(4.99461 -0.000167111 -2.9156e-05)
(4.9994 -0.000159973 -1.73101e-06)
(5.00398 -0.000149514 2.9535e-05)
(5.00857 -0.00014549 2.4356e-05)
(5.01325 -0.000147831 -3.19505e-06)
(5.01804 -0.000152464 -1.11752e-05)
(5.0229 -0.00015818 5.33122e-06)
(5.02778 -0.000161984 2.37699e-05)
(5.03262 -0.00016121 8.84586e-06)
(5.03731 -0.000153017 -2.50374e-05)
(5.04178 -0.000140199 -2.55639e-05)
(5.04627 -0.00013643 9.8685e-06)
(5.05105 -0.000150279 2.64621e-05)
(5.05618 -0.0001692 6.76002e-07)
(5.06133 -0.000172601 -7.16795e-05)
(5.066 -0.000155831 -0.000124699)
(5.07031 -0.000132102 -2.41491e-05)
(5.07455 -0.000126475 4.77748e-05)
(4.87668 -0.000155511 -1.08223e-05)
(4.88138 -0.000159209 -9.78675e-06)
(4.88599 -0.000156769 -2.88079e-06)
(4.8905 -0.000147368 6.38255e-06)
(4.89491 -0.000138809 1.40448e-05)
(4.89944 -0.000142836 1.55869e-05)
(4.90428 -0.000157354 1.40844e-05)
(4.90933 -0.000171309 4.10632e-06)
(4.91419 -0.000168034 -4.34706e-06)
(4.91864 -0.000146973 2.01826e-06)
(4.92295 -0.000132496 1.02512e-05)
(4.92749 -0.000140118 2.10402e-05)
(4.93247 -0.000161218 2.38149e-05)
(4.93768 -0.000177353 6.77259e-06)
(4.94258 -0.000169928 -1.40656e-05)
(4.94701 -0.00014429 -1.23579e-05)
(4.95132 -0.000130287 -1.05311e-06)
(4.9559 -0.000141431 3.13468e-06)
(4.9609 -0.000163759 -1.13039e-05)
(4.96606 -0.000175302 -3.44405e-05)
(4.97088 -0.000164621 -3.11543e-05)
(4.97534 -0.000144054 8.07693e-06)
(4.97981 -0.000138024 3.7448e-05)
(4.98456 -0.000150448 3.1278e-05)
(4.98957 -0.000164374 -4.49196e-06)
(4.99459 -0.000167238 -2.8047e-05)
(4.99937 -0.000158617 -1.89516e-05)
(5.00396 -0.000148401 1.45407e-05)
(5.00857 -0.000145596 2.2842e-05)
(5.01325 -0.000148438 9.19e-06)
(5.01803 -0.00015294 -7.88628e-06)
(5.02289 -0.000158514 -5.62538e-06)
(5.02777 -0.000162544 1.26816e-05)
(5.03262 -0.000161049 1.49919e-05)
(5.0373 -0.000151651 4.81297e-07)
(5.04177 -0.000137585 3.42178e-07)
(5.04627 -0.000135301 1.10078e-05)
(5.05106 -0.000152417 9.61085e-06)
(5.05618 -0.000172669 -2.14144e-05)
(5.06132 -0.00017435 -6.83177e-05)
(5.06599 -0.00015545 -0.000155249)
(5.0702 -0.000127437 4.35595e-06)
(5.07452 -0.000125501 2.88731e-05)
(4.87668 -0.000155802 -2.08048e-05)
(4.88138 -0.000159344 -2.22559e-05)
(4.88599 -0.00015579 -1.14422e-06)
(4.8905 -0.000146343 2.79014e-05)
(4.89492 -0.000138858 3.81204e-05)
(4.89946 -0.000144454 2.57338e-05)
(4.90427 -0.000159194 -4.60761e-07)
(4.90932 -0.000172237 -1.73253e-05)
(4.91419 -0.000167556 -8.52315e-06)
(4.91866 -0.000144902 2.45768e-05)
(4.923 -0.000131153 3.55063e-05)
(4.92754 -0.000141053 1.90721e-05)
(4.93249 -0.000163456 -4.96163e-06)
(4.93768 -0.000178894 -2.59205e-05)
(4.94258 -0.000169283 -1.95249e-05)
(4.94701 -0.00014198 1.68381e-05)
(4.95134 -0.0001288 2.76736e-05)
(4.95592 -0.000142141 1.52247e-05)
(4.96091 -0.000165031 -1.79232e-05)
(4.96604 -0.000174992 -3.8115e-05)
(4.97086 -0.000162902 -2.1587e-05)
(4.97532 -0.000142563 2.02331e-05)
(4.97981 -0.000138848 3.54981e-05)
(4.98457 -0.000152609 1.56799e-05)
(4.98955 -0.000165332 -1.89344e-05)
(4.99455 -0.000165893 -3.23211e-05)
(4.99934 -0.00015659 -2.0731e-05)
(5.00394 -0.000147524 1.14921e-05)
(5.00857 -0.000146779 1.87278e-05)
(5.01327 -0.000150082 3.64559e-06)
(5.01804 -0.000153163 -1.46425e-05)
(5.02288 -0.000157455 -1.74737e-05)
(5.02775 -0.00016111 5.52852e-07)
(5.0326 -0.000160777 2.75774e-05)
(5.0373 -0.000153118 3.39977e-05)
(5.04179 -0.000139633 3.53846e-05)
(5.04629 -0.000136211 1.70788e-05)
(5.05107 -0.000151507 -2.00549e-05)
(5.05615 -0.000170219 -4.06411e-05)
(5.06132 -0.000174132 -5.02287e-05)
(5.06634 -0.000164262 -4.96421e-05)
(5.06976 -0.000120009 -7.80236e-06)
(5.07437 -0.000126144 -1.95977e-06)
(4.87667 -0.000155095 -3.74562e-05)
(4.88135 -0.000157236 -4.09962e-05)
(4.88596 -0.000154838 -1.93844e-05)
(4.89048 -0.000147815 2.78444e-05)
(4.89491 -0.000141715 4.9021e-05)
(4.89945 -0.000145379 4.49735e-05)
(4.90425 -0.000156471 1.93992e-05)
(4.90928 -0.000167824 -2.67932e-06)
(4.91416 -0.000165599 4.28278e-06)
(4.91866 -0.000147833 3.33194e-05)
(4.92303 -0.000136694 4.27721e-05)
(4.92756 -0.000143842 2.02815e-05)
(4.93247 -0.000160698 -1.75908e-05)
(4.93764 -0.000173499 -3.3964e-05)
(4.94254 -0.000166662 -2.00683e-05)
(4.94701 -0.000144298 2.23148e-05)
(4.95137 -0.000133243 3.21532e-05)
(4.95595 -0.000144047 8.48546e-06)
(4.9609 -0.000162675 -3.53422e-05)
(4.96601 -0.000171809 -4.94005e-05)
(4.97083 -0.000162604 -3.09382e-05)
(4.97532 -0.000145603 1.36632e-05)
(4.97984 -0.00014191 3.03246e-05)
(4.98458 -0.000153367 1.2936e-05)
(4.98954 -0.000163549 -1.54957e-05)
(4.99452 -0.000163896 -2.41188e-05)
(4.99931 -0.000156042 -1.25516e-05)
(5.00393 -0.000148191 8.4529e-06)
(5.00857 -0.0001479 1.28973e-05)
(5.01327 -0.000151079 1.89189e-07)
(5.01804 -0.000153261 -1.24501e-05)
(5.02288 -0.000156494 -1.42161e-05)
(5.02773 -0.000159194 1.61585e-06)
(5.03258 -0.00015944 2.91512e-05)
(5.03729 -0.000153624 4.17395e-05)
(5.04179 -0.000141823 4.38264e-05)
(5.04631 -0.000138139 2.03043e-05)
(5.05108 -0.000151723 -2.68148e-05)
(5.05612 -0.000168291 -4.2783e-05)
(5.06125 -0.000172027 -3.4262e-05)
(5.06602 -0.000158663 5.30462e-05)
(5.07009 -0.000128221 -4.4572e-05)
(5.07444 -0.000128028 -4.62058e-05)
(4.87661 -0.000154036 -2.6253e-05)
(4.8813 -0.000154803 -2.56909e-05)
(4.88592 -0.000152145 -4.53924e-06)
(4.89045 -0.000146803 2.60094e-05)
(4.89489 -0.000143373 3.9317e-05)
(4.89944 -0.000149094 3.55316e-05)
(4.90424 -0.00016014 2.18022e-05)
(4.90926 -0.000169187 1.19171e-05)
(4.91412 -0.000164177 1.60498e-05)
(4.91862 -0.000145627 2.81588e-05)
(4.92299 -0.000135578 2.69485e-05)
(4.92753 -0.000144599 6.21079e-07)
(4.93244 -0.000162128 -2.4471e-05)
(4.9376 -0.000174042 -2.974e-05)
(4.9425 -0.000165976 -1.48933e-05)
(4.94698 -0.000143157 1.65493e-05)
(4.95135 -0.000132858 2.7461e-05)
(4.95594 -0.000144625 1.073e-05)
(4.96089 -0.000162871 -1.77165e-05)
(4.96599 -0.000170815 -2.64712e-05)
(4.97082 -0.000160983 -1.31087e-05)
(4.97531 -0.00014449 6.07056e-06)
(4.97982 -0.000141994 9.87114e-06)
(4.98458 -0.00015438 -9.00366e-06)
(4.98953 -0.00016461 -2.15638e-05)
(4.99451 -0.000164381 -2.11988e-05)
(4.9993 -0.000156118 -1.06496e-05)
(5.00392 -0.000148022 2.93206e-06)
(5.00856 -0.00014753 4.39596e-06)
(5.01326 -0.000150345 -6.34886e-06)
(5.01803 -0.000152187 -1.28089e-05)
(5.02287 -0.000155829 -1.11272e-05)
(5.02773 -0.000159556 6.91727e-06)
(5.03258 -0.000160753 3.32313e-05)
(5.03729 -0.00015523 4.61678e-05)
(5.04179 -0.000142439 4.25439e-05)
(5.0463 -0.000137444 7.08835e-06)
(5.05106 -0.000150225 -3.65295e-05)
(5.0561 -0.000167246 -4.34701e-05)
(5.06122 -0.000171376 -1.1852e-05)
(5.06592 -0.00015575 5.97756e-05)
(5.07018 -0.000130965 -5.15644e-06)
(5.07443 -0.000128351 -5.57825e-05)
(4.87663 -0.000155203 -1.70864e-05)
(4.8813 -0.000156869 -8.04187e-06)
(4.88591 -0.000153879 7.02088e-06)
(4.89044 -0.000147396 1.57673e-05)
(4.89488 -0.000142316 1.35436e-05)
(4.89943 -0.000146775 9.92842e-06)
(4.90423 -0.000157869 1.22184e-05)
(4.90925 -0.000168758 2.5129e-05)
(4.91412 -0.000166473 3.58689e-05)
(4.91863 -0.00014891 3.84847e-05)
(4.92301 -0.000137069 2.58086e-05)
(4.92755 -0.000143093 -7.44575e-06)
(4.93246 -0.000158913 -2.83072e-05)
(4.93761 -0.000171994 -2.60152e-05)
(4.94253 -0.000166564 3.51438e-06)
(4.94701 -0.00014528 3.05054e-05)
(4.95139 -0.000133855 3.49272e-05)
(4.95598 -0.000143428 1.638e-05)
(4.96092 -0.000161221 -1.84461e-05)
(4.96602 -0.00017056 -2.80344e-05)
(4.97084 -0.000162812 -2.42892e-05)
(4.97533 -0.000146992 -1.56273e-05)
(4.97983 -0.000143172 -1.29198e-05)
(4.98458 -0.000153373 -1.81012e-05)
(4.98952 -0.000162541 -1.85743e-05)
(4.9945 -0.000162981 -1.18485e-05)
(4.9993 -0.000156219 -4.54731e-06)
(5.00393 -0.000149277 -4.57036e-07)
(5.00858 -0.000148755 4.148e-06)
(5.01328 -0.00015041 6.62739e-06)
(5.01804 -0.000150957 7.35601e-06)
(5.02288 -0.000153755 5.70492e-06)
(5.02773 -0.000157894 6.31941e-06)
(5.03258 -0.000160777 2.00149e-05)
(5.0373 -0.000157145 3.84231e-05)
(5.04181 -0.000144894 4.00742e-05)
(5.04632 -0.000138519 1.28763e-05)
(5.05106 -0.00014875 -2.89974e-05)
(5.05608 -0.000164689 -3.98425e-05)
(5.06118 -0.000169991 -6.55402e-06)
(5.0659 -0.000156369 4.16453e-05)
(5.0702 -0.000135129 5.67895e-06)
(5.07446 -0.000130886 -6.54115e-05)
(4.87664 -0.000153426 -2.1275e-05)
(4.88131 -0.000154882 -7.9031e-06)
(4.88592 -0.000152992 1.58299e-05)
(4.89046 -0.000147114 2.31993e-05)
(4.89491 -0.00014228 1.8504e-05)
(4.89946 -0.00014719 1.03836e-05)
(4.90426 -0.000159182 9.41649e-06)
(4.90928 -0.000169958 1.9956e-05)
(4.91413 -0.00016668 2.98256e-05)
(4.91863 -0.000148459 3.29839e-05)
(4.923 -0.000136719 2.69571e-05)
(4.92756 -0.000143721 6.29131e-06)
(4.93248 -0.000160231 -1.103e-05)
(4.93763 -0.000172145 -9.85881e-06)
(4.94252 -0.000164881 5.21763e-06)
(4.947 -0.000143946 1.87325e-05)
(4.95138 -0.000134399 1.84588e-05)
(4.95597 -0.000145458 5.35095e-06)
(4.96092 -0.000162748 -7.28527e-06)
(4.96601 -0.000169789 -1.26724e-05)
(4.97082 -0.000160236 -1.84696e-05)
(4.97531 -0.000144624 -3.02926e-05)
(4.97982 -0.000142372 -3.73772e-05)
(4.98457 -0.000154262 -3.27521e-05)
(4.98953 -0.000164596 -1.7615e-05)
(4.99451 -0.000164613 -1.52011e-06)
(4.99931 -0.000156409 -9.64494e-07)
(5.00393 -0.000148128 -5.98082e-06)
(5.00857 -0.000146882 -1.23217e-06)
(5.01327 -0.000149215 1.84013e-05)
(5.01805 -0.000151559 3.30671e-05)
(5.02289 -0.00015541 2.83595e-05)
(5.02775 -0.000159382 8.66652e-06)
(5.03258 -0.000161085 1.27426e-06)
(5.03729 -0.00015643 1.5342e-05)
(5.0418 -0.000144301 2.33862e-05)
(5.04632 -0.000138507 3.28635e-06)
(5.05106 -0.00014873 -2.7973e-05)
(5.05608 -0.000164552 -3.72682e-05)
(5.06117 -0.000170276 -6.83684e-06)
(5.06589 -0.000156339 2.87406e-05)
(5.07022 -0.000135717 1.9037e-05)
(5.07444 -0.000130574 -5.95386e-05)
(4.87667 -0.000154879 -5.74268e-06)
(4.88134 -0.000156874 1.42674e-05)
(4.88595 -0.000154709 2.01972e-05)
(4.89048 -0.0001482 1.3823e-05)
(4.89492 -0.000142492 -2.62707e-06)
(4.89947 -0.000146315 -7.9303e-06)
(4.90427 -0.000157514 3.18802e-07)
(4.90927 -0.000168959 1.64743e-05)
(4.91413 -0.000167297 2.35373e-05)
(4.91864 -0.000150239 2.4541e-05)
(4.92302 -0.000137918 1.39366e-05)
(4.92756 -0.00014313 6.57578e-07)
(4.93248 -0.000158803 -7.9336e-07)
(4.93762 -0.000171851 3.95574e-06)
(4.94253 -0.000166781 1.51967e-05)
(4.947 -0.000146005 2.00023e-05)
(4.95138 -0.000134309 1.55406e-05)
(4.95597 -0.000142961 9.5907e-06)
(4.96091 -0.000160498 5.85978e-06)
(4.96601 -0.000170398 -4.86001e-06)
(4.97083 -0.000163282 -2.68829e-05)
(4.97532 -0.000147236 -4.47989e-05)
(4.97981 -0.000142223 -5.11151e-05)
(4.98455 -0.000151879 -3.92209e-05)
(4.98951 -0.000162294 -7.21346e-06)
(4.99451 -0.000164064 1.11661e-05)
(4.99932 -0.000157361 3.94858e-06)
(5.00394 -0.000149142 -5.18967e-06)
(5.00857 -0.000147067 5.22011e-06)
(5.01327 -0.000148727 3.38255e-05)
(5.01805 -0.000151199 4.92056e-05)
(5.02289 -0.000155372 3.29769e-05)
(5.02774 -0.000159355 -5.51268e-06)
(5.03257 -0.000161004 -2.17212e-05)
(5.03728 -0.000156522 -4.78945e-06)
(5.0418 -0.000144967 1.5105e-05)
(5.04633 -0.000139068 6.49975e-06)
(5.05105 -0.000147919 -2.30687e-05)
(5.05605 -0.000162535 -3.20567e-05)
(5.06115 -0.000169093 -6.67812e-06)
(5.06589 -0.000158038 1.61766e-05)
(5.07022 -0.000138712 3.6593e-05)
(5.07444 -0.000132478 -3.60395e-05)
(4.87664 -0.00015314 -1.87103e-05)
(4.88132 -0.000157016 -4.28523e-06)
(4.88593 -0.000155998 8.43013e-06)
(4.89046 -0.000148927 1.13744e-05)
(4.89491 -0.000141994 8.35737e-06)
(4.89945 -0.000145296 6.13097e-06)
(4.90423 -0.000156838 1.27957e-05)
(4.90924 -0.000169021 1.5271e-05)
(4.9141 -0.000167279 1.47978e-05)
(4.91862 -0.000149515 1.33423e-05)
(4.923 -0.000137735 6.95732e-06)
(4.92755 -0.000144209 5.25783e-06)
(4.93245 -0.000159824 1.08495e-05)
(4.93759 -0.000171376 1.1037e-05)
(4.94249 -0.000164792 5.21897e-06)
(4.94698 -0.000143842 -1.83697e-06)
(4.95137 -0.000134702 -1.12183e-05)
(4.95596 -0.000146419 -9.43213e-06)
(4.96089 -0.000163751 4.51627e-06)
(4.96598 -0.000170894 3.98234e-06)
(4.9708 -0.000160578 -2.10162e-05)
(4.9753 -0.000143594 -4.6911e-05)
(4.97982 -0.000140509 -5.51249e-05)
(4.98457 -0.000153142 -3.78099e-05)
(4.98952 -0.000164512 4.15235e-06)
(4.99452 -0.000165587 1.67502e-05)
(4.99933 -0.000157403 8.2433e-07)
(5.00394 -0.00014775 -9.60643e-06)
(5.00857 -0.000145685 1.05938e-05)
(5.01328 -0.000148948 5.07637e-05)
(5.01806 -0.000153128 6.40468e-05)
(5.0229 -0.000157476 3.61765e-05)
(5.02773 -0.000159989 -1.74397e-05)
(5.03255 -0.000159426 -3.33158e-05)
(5.03726 -0.000154401 -1.04009e-05)
(5.0418 -0.000144154 1.34781e-05)
(5.04634 -0.000140029 3.6579e-06)
(5.05107 -0.000149462 -2.40414e-05)
(5.05604 -0.000162873 -2.96361e-05)
(5.06113 -0.000168672 -6.32628e-06)
(5.06589 -0.00015936 -1.37159e-05)
(5.07021 -0.000139261 4.2069e-05)
(5.07449 -0.000132612 -3.03916e-05)
(4.87666 -0.000154772 -7.10499e-06)
(4.88132 -0.000157392 -6.72343e-06)
(4.88593 -0.000155378 -8.56265e-06)
(4.89045 -0.000148797 -3.6328e-06)
(4.8949 -0.000142842 6.02793e-06)
(4.89945 -0.000146094 1.2175e-05)
(4.90422 -0.000156266 1.32633e-05)
(4.90922 -0.000167848 4.96064e-06)
(4.91408 -0.00016718 -5.26528e-06)
(4.91861 -0.000150579 -8.15878e-06)
(4.923 -0.000138614 -4.82774e-06)
(4.92754 -0.000143775 7.27677e-06)
(4.93242 -0.000158469 2.36969e-05)
(4.93756 -0.00017148 2.49412e-05)
(4.94247 -0.000166999 1.59415e-05)
(4.94697 -0.000145602 -6.24157e-07)
(4.95136 -0.000133181 -1.27417e-05)
(4.95594 -0.000141952 -6.25692e-06)
(4.96087 -0.000160232 1.4686e-05)
(4.96598 -0.000171754 1.73076e-05)
(4.97082 -0.000165056 -9.69016e-06)
(4.97532 -0.000146694 -4.51944e-05)
(4.97983 -0.000139736 -5.36276e-05)
(4.98457 -0.000150211 -3.1222e-05)
(4.98952 -0.000162351 1.23431e-05)
(4.99452 -0.000165645 1.74919e-05)
(4.99934 -0.000158765 -7.2254e-06)
(5.00394 -0.00014829 -1.58398e-05)
(5.00857 -0.000145635 1.81386e-05)
(5.01329 -0.000149864 6.12279e-05)
(5.01807 -0.00015453 6.68724e-05)
(5.02291 -0.000157715 2.20071e-05)
(5.02773 -0.000158697 -3.67796e-05)
(5.03253 -0.000158071 -4.37229e-05)
(5.03725 -0.000154788 -1.3718e-05)
(5.04181 -0.000145786 1.23914e-05)
(5.04636 -0.000141049 -2.61362e-06)
(5.05106 -0.000148653 -2.72915e-05)
(5.05602 -0.000161275 -2.38539e-05)
(5.06112 -0.000168999 7.77574e-06)
(5.06596 -0.000164818 -2.44872e-05)
(5.07019 -0.000139665 5.43093e-05)
(5.0745 -0.000130684 -2.06442e-05)
(4.87662 -0.000155725 -3.46466e-05)
(4.88128 -0.000159341 -3.58309e-05)
(4.88587 -0.000156297 -2.80608e-05)
(4.8904 -0.000148377 -8.27829e-06)
(4.89485 -0.000141939 1.54841e-05)
(4.8994 -0.000145654 3.02072e-05)
(4.90418 -0.000156336 3.23269e-05)
(4.90919 -0.000167798 1.78488e-05)
(4.91406 -0.00016645 -7.78625e-06)
(4.9186 -0.000149026 -2.36008e-05)
(4.923 -0.000137739 -2.17961e-05)
(4.92754 -0.000144563 -8.17692e-07)
(4.93242 -0.000160175 2.39819e-05)
(4.93756 -0.000172257 2.81611e-05)
(4.94247 -0.000165936 1.69933e-05)
(4.94696 -0.000144119 -6.71964e-07)
(4.95136 -0.000133526 -6.73142e-06)
(4.95593 -0.000144639 3.3586e-06)
(4.96085 -0.000163142 1.55868e-05)
(4.96595 -0.000172625 6.95776e-06)
(4.97079 -0.000163051 -2.24735e-05)
(4.9753 -0.00014314 -3.87634e-05)
(4.97981 -0.000137488 -3.13546e-05)
(4.98456 -0.000150738 5.32214e-08)
(4.98953 -0.000164988 1.70756e-05)
(4.99454 -0.000167997 9.78146e-07)
(4.99935 -0.000158972 -3.34042e-05)
(5.00393 -0.000146569 -3.22938e-05)
(5.00855 -0.000144073 2.19911e-05)
(5.01327 -0.000150773 6.50613e-05)
(5.01807 -0.000156918 6.26817e-05)
(5.02292 -0.000159586 5.723e-06)
(5.02771 -0.000158126 -4.34029e-05)
(5.03249 -0.000155919 -3.78574e-05)
(5.03722 -0.000152597 3.69596e-06)
(5.0418 -0.000144973 1.86935e-05)
(5.04637 -0.000141689 -8.93303e-06)
(5.05107 -0.000149502 -3.16252e-05)
(5.05601 -0.000161403 -1.49307e-05)
(5.06112 -0.000170123 3.74584e-05)
(5.06626 -0.000170908 5.73547e-05)
(5.06991 -0.000131735 3.74367e-07)
(5.0744 -0.000128996 -4.58656e-05)
(4.87662 -0.000154803 -4.9924e-05)
(4.88127 -0.000155827 -5.37722e-05)
(4.88588 -0.000153587 -4.6636e-05)
(4.89041 -0.000148037 -1.73007e-05)
(4.89486 -0.000143369 2.57968e-05)
(4.89942 -0.000146924 4.65531e-05)
(4.9042 -0.000156522 4.79303e-05)
(4.90921 -0.000167768 2.53838e-05)
(4.91409 -0.000167328 -1.59669e-05)
(4.91862 -0.000150415 -3.25994e-05)
(4.92301 -0.000137988 -2.30154e-05)
(4.92755 -0.000143053 1.02441e-05)
(4.93244 -0.000158405 3.03119e-05)
(4.93759 -0.000172293 2.8115e-05)
(4.94251 -0.000167875 -2.52324e-07)
(4.947 -0.000146078 -2.33721e-05)
(4.95138 -0.000133565 -2.11918e-05)
(4.95595 -0.000143151 4.23201e-06)