/*--------------------------------*- C++ -*----------------------------------*\
  =========                 |
  \\      /  F ield         | OpenFOAM: The Open Source CFD Toolbox
   \\    /   O peration     | Website:  https://openfoam.org
    \\  /    A nd           | Version:  9
     \\/     M anipulation  |
\*---------------------------------------------------------------------------*/
FoamFile
{
    format      ascii;
    class       volScalarField;
    location    "1200";
    object      k;
}
// * * * * * * * * * * * * * * * * * * * * * * * * * * * * * * * * * * * * * //

dimensions      [0 2 -2 0 0 0 0];

internalField   nonuniform List<scalar> 
82200
(
0.586695
0.58759
0.588488
0.589391
0.5903
0.591214
0.592134
0.593058
0.593983
0.59491
0.59584
0.596773
0.597708
0.598639
0.599565
0.60049
0.601418
0.602353
0.603287
0.604219
0.605151
0.606086
0.607029
0.60798
0.60893
0.609876
0.610813
0.611742
0.61267
0.613599
0.614539
0.615489
0.61644
0.617388
0.618318
0.619229
0.620146
0.621068
0.622025
0.623024
0.623988
0.624896
0.625764
0.586702
0.587598
0.588494
0.589395
0.590302
0.591217
0.592137
0.59306
0.593985
0.594911
0.59584
0.596774
0.597708
0.59864
0.599567
0.600492
0.601422
0.602356
0.60329
0.604222
0.605153
0.606088
0.607031
0.607981
0.608931
0.609877
0.610815
0.611746
0.612676
0.613606
0.614545
0.615494
0.616443
0.617392
0.618323
0.619234
0.620149
0.621069
0.622025
0.623023
0.623992
0.624898
0.625771
0.586708
0.587603
0.588499
0.5894
0.590307
0.59122
0.592139
0.593061
0.593987
0.594914
0.595844
0.596779
0.597715
0.598648
0.599576
0.600501
0.601431
0.602367
0.603302
0.604233
0.605162
0.606096
0.607038
0.607988
0.608939
0.609885
0.610823
0.611754
0.612683
0.613612
0.614551
0.6155
0.616452
0.6174
0.61833
0.61924
0.62015
0.62107
0.62203
0.623028
0.623998
0.624907
0.625773
0.586709
0.587603
0.588499
0.589401
0.590309
0.591223
0.592143
0.593067
0.593993
0.594921
0.595851
0.596786
0.597722
0.598654
0.59958
0.600506
0.601437
0.602373
0.603309
0.60424
0.605169
0.606102
0.607044
0.607995
0.608946
0.609892
0.61083
0.611761
0.612689
0.613619
0.614557
0.615506
0.616457
0.617406
0.618335
0.619245
0.620154
0.621073
0.622034
0.623033
0.624003
0.624906
0.62578
0.586703
0.587598
0.588496
0.589399
0.590307
0.591221
0.592141
0.593064
0.593991
0.594919
0.595849
0.596783
0.597719
0.598651
0.599579
0.600505
0.601437
0.602374
0.60331
0.604242
0.605172
0.606106
0.607049
0.607999
0.60895
0.609896
0.610834
0.611763
0.612691
0.613619
0.614557
0.615505
0.616456
0.617405
0.618336
0.619246
0.620156
0.621075
0.622034
0.623034
0.624005
0.624907
0.625777
0.586703
0.587597
0.588495
0.589397
0.590304
0.591218
0.592136
0.59306
0.593986
0.594914
0.595845
0.596779
0.597714
0.598646
0.599573
0.600501
0.601434
0.602373
0.60331
0.604243
0.605172
0.606105
0.607047
0.607997
0.608948
0.609894
0.610832
0.611762
0.612689
0.613618
0.614556
0.615504
0.616455
0.617403
0.618334
0.619245
0.620155
0.621074
0.622034
0.623034
0.624005
0.624909
0.625774
0.586708
0.587601
0.588498
0.5894
0.590307
0.59122
0.592139
0.593062
0.593987
0.594913
0.595843
0.596778
0.597712
0.598643
0.59957
0.600497
0.601429
0.602367
0.603304
0.604237
0.605168
0.606101
0.607043
0.607993
0.608943
0.60989
0.610828
0.611759
0.612687
0.613615
0.614552
0.615499
0.616449
0.617398
0.618331
0.619242
0.620152
0.62107
0.622029
0.623029
0.624
0.624909
0.625773
0.5867
0.587593
0.58849
0.589393
0.590302
0.591215
0.592134
0.593057
0.593983
0.594911
0.595841
0.596776
0.597709
0.59864
0.599566
0.600492
0.601424
0.602362
0.603298
0.60423
0.605159
0.606091
0.607033
0.607984
0.608936
0.609884
0.610823
0.611754
0.612683
0.613614
0.614553
0.6155
0.616449
0.617397
0.618329
0.619241
0.620151
0.621069
0.622027
0.623027
0.623998
0.6249
0.62577
0.58669
0.587583
0.588479
0.589381
0.59029
0.591205
0.592125
0.59305
0.593977
0.594906
0.595838
0.596774
0.597709
0.59864
0.599567
0.600493
0.601423
0.602358
0.603293
0.604224
0.605154
0.606087
0.60703
0.60798
0.608932
0.609881
0.610821
0.611754
0.612685
0.613616
0.614553
0.615498
0.616447
0.617395
0.618328
0.619241
0.620151
0.621068
0.622026
0.623026
0.623997
0.624894
0.625771
0.586687
0.58758
0.588477
0.589381
0.590291
0.591207
0.592129
0.593055
0.593983
0.594912
0.595844
0.59678
0.597714
0.598644
0.59957
0.600495
0.601425
0.602361
0.603295
0.604227
0.605157
0.60609
0.607031
0.607982
0.608934
0.609882
0.610822
0.611754
0.612685
0.613617
0.614555
0.6155
0.616446
0.617392
0.618324
0.619238
0.620151
0.62107
0.622027
0.623026
0.624002
0.624895
0.625766
0.58669
0.587582
0.588479
0.589383
0.590293
0.59121
0.592132
0.593058
0.593987
0.594915
0.595845
0.596779
0.597712
0.598642
0.599568
0.600494
0.601424
0.602359
0.603294
0.604226
0.605157
0.606091
0.607034
0.607985
0.608936
0.609884
0.610823
0.611754
0.612686
0.613618
0.614555
0.615499
0.616443
0.617388
0.61832
0.619234
0.62015
0.62107
0.622027
0.623023
0.624063
0.624899
0.625736
0.586693
0.587587
0.588486
0.589389
0.590298
0.591213
0.592134
0.59306
0.593988
0.594917
0.595847
0.596779
0.597709
0.598637
0.599563
0.600489
0.601421
0.602357
0.603294
0.604227
0.605158
0.606092
0.607035
0.607986
0.608937
0.609885
0.610823
0.611754
0.612685
0.613617
0.614555
0.615498
0.616441
0.617384
0.618315
0.619229
0.620149
0.62107
0.622027
0.623026
0.624005
0.624914
0.625756
0.586692
0.587585
0.588482
0.589384
0.590293
0.591208
0.592128
0.593053
0.59398
0.594907
0.595836
0.596768
0.5977
0.598629
0.599557
0.600484
0.601415
0.602351
0.603286
0.60422
0.605153
0.606089
0.607033
0.607984
0.608936
0.609883
0.610822
0.611752
0.612684
0.613616
0.614553
0.615496
0.616437
0.61738
0.618311
0.619227
0.620148
0.62107
0.622024
0.623022
0.623986
0.62491
0.625742
0.586689
0.587585
0.588484
0.589387
0.590295
0.591208
0.592128
0.593053
0.593981
0.594909
0.595837
0.596766
0.597695
0.598621
0.599547
0.600474
0.601407
0.602346
0.603283
0.604217
0.60515
0.606086
0.607031
0.607984
0.608936
0.609884
0.610823
0.611753
0.612683
0.613615
0.614553
0.615497
0.616439
0.617382
0.618313
0.619227
0.620147
0.621069
0.622025
0.623024
0.623987
0.624906
0.62574
0.586682
0.587577
0.588478
0.589384
0.590295
0.591211
0.592132
0.593057
0.593984
0.594911
0.595838
0.596768
0.597697
0.598624
0.599549
0.600476
0.601408
0.602346
0.603283
0.604218
0.605152
0.60609
0.607036
0.607989
0.60894
0.609886
0.610823
0.611754
0.612686
0.613619
0.614556
0.615498
0.616439
0.617382
0.618313
0.619228
0.620146
0.621068
0.622025
0.623023
0.623988
0.624914
0.62574
0.586679
0.587574
0.588474
0.589379
0.590289
0.591205
0.592128
0.593055
0.593984
0.594914
0.595842
0.596772
0.5977
0.598625
0.599549
0.600476
0.60141
0.602349
0.603286
0.60422
0.605153
0.60609
0.607035
0.607988
0.60894
0.609886
0.610823
0.611754
0.612685
0.613618
0.614557
0.6155
0.616443
0.617386
0.618315
0.619228
0.620146
0.62107
0.622028
0.623027
0.623993
0.624916
0.625746
0.58668
0.587576
0.588476
0.589381
0.590293
0.59121
0.592133
0.593059
0.593987
0.594914
0.595842
0.596771
0.597699
0.598625
0.59955
0.600477
0.60141
0.602348
0.603285
0.604219
0.605152
0.606089
0.607035
0.607986
0.608935
0.609879
0.610817
0.611749
0.612683
0.613618
0.614556
0.615498
0.61644
0.617383
0.618314
0.619228
0.620149
0.621073
0.622029
0.623029
0.623996
0.624901
0.625758
0.58668
0.587576
0.588476
0.589382
0.590293
0.59121
0.592132
0.593058
0.593987
0.594916
0.595845
0.596775
0.597703
0.598628
0.599553
0.60048
0.601412
0.60235
0.603286
0.604218
0.60515
0.606086
0.607031
0.607983
0.608933
0.609877
0.610815
0.611747
0.61268
0.613614
0.614554
0.615499
0.616442
0.617384
0.618313
0.619226
0.620149
0.621077
0.622035
0.623033
0.624002
0.624897
0.625753
0.586673
0.587568
0.588468
0.589373
0.590285
0.591203
0.592125
0.59305
0.593978
0.594907
0.595836
0.596766
0.597695
0.598621
0.599548
0.600475
0.601407
0.602345
0.603282
0.604215
0.605148
0.606086
0.607032
0.607983
0.608931
0.609874
0.610812
0.611746
0.612681
0.613616
0.614555
0.6155
0.616442
0.617386
0.618316
0.61923
0.620153
0.621081
0.622038
0.623032
0.624063
0.624892
0.625731
0.586673
0.587567
0.588465
0.589369
0.59028
0.591197
0.592119
0.593045
0.593973
0.594903
0.595833
0.596765
0.597695
0.598623
0.59955
0.600478
0.601411
0.602348
0.603285
0.604217
0.60515
0.606088
0.607033
0.607986
0.608936
0.609879
0.610817
0.61175
0.612684
0.613619
0.614559
0.615505
0.616448
0.617391
0.61832
0.619233
0.620157
0.621088
0.622045
0.623042
0.624015
0.624914
0.625755
0.586678
0.587571
0.588468
0.589373
0.590283
0.591201
0.592122
0.593047
0.593975
0.594905
0.595837
0.596771
0.597703
0.598631
0.599558
0.600484
0.601415
0.602351
0.603286
0.604219
0.605153
0.606092
0.607038
0.607989
0.608936
0.609879
0.610817
0.611751
0.612687
0.613623
0.614563
0.615508
0.616451
0.617394
0.618324
0.619237
0.620162
0.621091
0.622048
0.623044
0.624001
0.624918
0.625747
0.586691
0.587583
0.588478
0.589381
0.59029
0.591207
0.592129
0.593054
0.593983
0.594914
0.595846
0.596779
0.597709
0.598637
0.599563
0.60049
0.601421
0.602356
0.60329
0.60422
0.605152
0.60609
0.607037
0.60799
0.608938
0.609881
0.610818
0.61175
0.612684
0.613619
0.614561
0.615509
0.616453
0.617396
0.618324
0.619237
0.62016
0.621091
0.622049
0.623044
0.624002
0.624923
0.625747
0.586691
0.587583
0.588478
0.589381
0.590292
0.591211
0.592135
0.593062
0.593991
0.594923
0.595855
0.596787
0.597717
0.598643
0.599567
0.600492
0.601421
0.602355
0.603289
0.60422
0.605153
0.606092
0.607039
0.607991
0.608939
0.609881
0.610819
0.611753
0.612689
0.613625
0.614565
0.615512
0.616456
0.617399
0.618327
0.61924
0.620161
0.621091
0.62205
0.623045
0.624002
0.624917
0.625747
0.586686
0.58758
0.588478
0.589382
0.590292
0.591209
0.592133
0.59306
0.59399
0.594922
0.595854
0.596788
0.597719
0.598646
0.599571
0.600496
0.601425
0.602359
0.603293
0.604224
0.605156
0.606094
0.607041
0.607994
0.608943
0.609886
0.610823
0.611755
0.612688
0.613622
0.614564
0.615513
0.61646
0.617403
0.61833
0.619242
0.620162
0.621092
0.622051
0.623045
0.624007
0.624924
0.625757
0.586683
0.587577
0.588474
0.589378
0.590288
0.591207
0.592131
0.593059
0.593989
0.59492
0.595853
0.596787
0.597718
0.598647
0.599572
0.600498
0.601428
0.602363
0.603296
0.604227
0.605159
0.606098
0.607044
0.607996
0.608945
0.609887
0.610825
0.611758
0.612691
0.613625
0.614566
0.615514
0.616458
0.617402
0.61833
0.619242
0.620165
0.621094
0.622052
0.623046
0.624007
0.62491
0.625769
0.586682
0.587578
0.588478
0.589383
0.590293
0.59121
0.592133
0.59306
0.593989
0.594919
0.59585
0.596783
0.597715
0.598644
0.59957
0.600495
0.601425
0.602359
0.603293
0.604224
0.605157
0.606096
0.607043
0.607996
0.608945
0.609889
0.610826
0.611758
0.61269
0.613623
0.614564
0.615513
0.616459
0.617403
0.618332
0.619244
0.620165
0.621092
0.622049
0.623043
0.624005
0.624912
0.625776
0.586687
0.587583
0.588483
0.589388
0.590299
0.591217
0.59214
0.593065
0.593991
0.594919
0.595848
0.596781
0.597712
0.598639
0.599564
0.600489
0.601419
0.602354
0.603289
0.604222
0.605156
0.606095
0.607041
0.607993
0.608942
0.609886
0.610824
0.611756
0.612688
0.61362
0.61456
0.615509
0.616456
0.617401
0.618329
0.619241
0.62016
0.621087
0.622046
0.623041
0.624002
0.624909
0.625778
0.586681
0.58758
0.588481
0.589388
0.590299
0.591216
0.592138
0.593062
0.593989
0.594917
0.595846
0.596778
0.597709
0.598637
0.599561
0.600484
0.601413
0.602349
0.603285
0.604219
0.605152
0.606091
0.607038
0.607989
0.608939
0.609884
0.610822
0.611753
0.612684
0.613615
0.614553
0.615501
0.61645
0.617396
0.618326
0.619239
0.620154
0.621078
0.622035
0.623029
0.623996
0.62491
0.625774
0.586684
0.587582
0.588483
0.589389
0.590299
0.591217
0.59214
0.593065
0.593991
0.594918
0.595847
0.596779
0.597711
0.598639
0.599563
0.600486
0.601415
0.60235
0.603285
0.604218
0.605151
0.606089
0.607035
0.607987
0.608937
0.609882
0.610819
0.611748
0.612677
0.613607
0.614547
0.615497
0.616447
0.617392
0.618322
0.619233
0.620147
0.621071
0.622031
0.623026
0.623993
0.624906
0.625774
0.586682
0.58758
0.588481
0.589386
0.590296
0.591213
0.592135
0.59306
0.593987
0.594915
0.595845
0.596778
0.597711
0.598639
0.599562
0.600485
0.601413
0.602347
0.603282
0.604215
0.605148
0.606086
0.607031
0.607982
0.608932
0.609878
0.610815
0.611746
0.612675
0.613605
0.614543
0.615491
0.616441
0.617389
0.618321
0.619234
0.620148
0.621068
0.622026
0.623021
0.623991
0.624903
0.625768
0.745041
0.746054
0.747079
0.748115
0.74916
0.750207
0.751254
0.752306
0.753367
0.754432
0.75549
0.756532
0.757561
0.75859
0.759629
0.760679
0.761733
0.762784
0.763834
0.764891
0.76596
0.767039
0.768119
0.769192
0.770248
0.771285
0.772312
0.77335
0.77442
0.775525
0.776637
0.777705
0.778698
0.779648
0.780631
0.781721
0.782921
0.784133
0.785217
0.786108
0.78691
0.78783
0.788986
0.745048
0.746057
0.747079
0.748116
0.749162
0.750211
0.751259
0.752309
0.753366
0.75443
0.755489
0.756533
0.757565
0.758595
0.759635
0.760686
0.76174
0.762789
0.763837
0.764892
0.765961
0.76704
0.768121
0.769192
0.770248
0.771287
0.772318
0.773358
0.774425
0.775525
0.776632
0.777701
0.778701
0.779656
0.780639
0.781722
0.782914
0.784123
0.785212
0.786112
0.786923
0.787839
0.788981
0.745058
0.746067
0.747089
0.748124
0.749167
0.750213
0.751261
0.752313
0.753373
0.754438
0.755498
0.756544
0.757576
0.758607
0.759647
0.760698
0.761751
0.7628
0.763847
0.764901
0.765966
0.767043
0.768125
0.7692
0.770258
0.771297
0.772322
0.773357
0.774426
0.775534
0.776649
0.777718
0.778709
0.779654
0.780635
0.781727
0.782931
0.784144
0.785223
0.786107
0.786911
0.787842
0.789011
0.745059
0.746069
0.747093
0.74813
0.749174
0.75022
0.751267
0.75232
0.753381
0.754447
0.755506
0.756549
0.757578
0.758608
0.759651
0.760706
0.761762
0.76281
0.763854
0.764904
0.76597
0.767049
0.768134
0.769211
0.770269
0.771305
0.772329
0.773364
0.774434
0.775542
0.776656
0.777723
0.778711
0.779655
0.780638
0.781734
0.782943
0.784158
0.785233
0.786109
0.786911
0.787837
0.789
0.745054
0.746068
0.747092
0.748127
0.749169
0.750215
0.751263
0.752317
0.753378
0.754441
0.755498
0.756543
0.757575
0.758608
0.759651
0.760705
0.76176
0.76281
0.763856
0.764909
0.765976
0.767057
0.768141
0.769217
0.770274
0.77131
0.772333
0.773366
0.774434
0.775541
0.776658
0.777727
0.778716
0.779659
0.78064
0.781737
0.782948
0.784163
0.785236
0.786108
0.786909
0.78784
0.789007
0.745053
0.746066
0.747088
0.748121
0.749161
0.750206
0.751256
0.752311
0.753373
0.754437
0.755493
0.756534
0.757565
0.758599
0.759647
0.760706
0.761764
0.762814
0.763857
0.764907
0.765973
0.767054
0.768141
0.769219
0.770277
0.771313
0.772336
0.773369
0.774436
0.775542
0.776657
0.777726
0.778715
0.779658
0.780638
0.781733
0.782944
0.784161
0.785236
0.78611
0.786909
0.787843
0.789018
0.745052
0.746063
0.747089
0.748125
0.749168
0.750212
0.751258
0.75231
0.753372
0.754437
0.755494
0.756536
0.757566
0.758599
0.759645
0.760702
0.76176
0.762811
0.763857
0.764908
0.765973
0.767053
0.768138
0.769215
0.770274
0.771313
0.772338
0.773371
0.774434
0.775535
0.776648
0.77772
0.778716
0.779662
0.78064
0.781728
0.782932
0.784148
0.785228
0.786108
0.78691
0.787842
0.789018
0.745041
0.746056
0.747084
0.74812
0.749161
0.750204
0.75125
0.752304
0.753367
0.754432
0.755488
0.756529
0.757558
0.758592
0.759639
0.760697
0.761754
0.762802
0.763843
0.764892
0.765959
0.767042
0.76813
0.769209
0.770268
0.771306
0.772333
0.773369
0.774436
0.775538
0.776649
0.777718
0.77871
0.779655
0.780634
0.781726
0.782934
0.78415
0.785226
0.7861
0.786905
0.787839
0.789018
0.745025
0.746039
0.747066
0.748104
0.749148
0.750194
0.751242
0.752297
0.753361
0.754427
0.755485
0.756528
0.75756
0.758594
0.759638
0.76069
0.761744
0.762791
0.763835
0.764888
0.765955
0.767037
0.768125
0.769204
0.770265
0.771306
0.772336
0.773373
0.774438
0.775535
0.776642
0.777711
0.778709
0.77966
0.780641
0.781727
0.782926
0.784139
0.785218
0.786102
0.786915
0.787847
0.789016
0.745026
0.746042
0.747072
0.748112
0.749156
0.750201
0.751248
0.752304
0.753368
0.754435
0.755492
0.756533
0.757563
0.758596
0.759641
0.760696
0.761749
0.762796
0.76384
0.764891
0.765958
0.76704
0.768127
0.769204
0.770263
0.771304
0.772337
0.773378
0.774442
0.775535
0.776636
0.777702
0.778704
0.779662
0.780645
0.781726
0.782917
0.784126
0.785209
0.786105
0.786918
0.787855
0.789038
0.745021
0.746036
0.747066
0.748107
0.749155
0.750204
0.751253
0.752306
0.753365
0.754428
0.755485
0.756529
0.757561
0.758594
0.759638
0.760691
0.761745
0.762793
0.763839
0.764892
0.765961
0.767043
0.768129
0.769206
0.770265
0.771306
0.772337
0.773375
0.774438
0.775529
0.776629
0.777696
0.778701
0.779662
0.780645
0.781721
0.782905
0.78411
0.785202
0.786114
0.786851
0.787831
0.78913
0.745031
0.746045
0.74707
0.748106
0.749151
0.750201
0.751254
0.752309
0.753369
0.754428
0.75548
0.756519
0.75755
0.758585
0.759632
0.760689
0.761746
0.762795
0.763841
0.764893
0.76596
0.76704
0.768125
0.769201
0.770261
0.771303
0.772337
0.773376
0.774435
0.77552
0.776616
0.777686
0.778698
0.779667
0.780649
0.781716
0.782888
0.78409
0.785193
0.786121
0.786927
0.787858
0.789056
0.74503
0.746044
0.74707
0.748106
0.74915
0.750197
0.751247
0.7523
0.753358
0.754418
0.755472
0.756513
0.757545
0.758579
0.759623
0.760676
0.761731
0.762783
0.763833
0.764888
0.765956
0.767036
0.768121
0.769197
0.770255
0.771298
0.772333
0.773374
0.774434
0.775517
0.776609
0.777677
0.778692
0.779664
0.780649
0.781716
0.782885
0.784087
0.785191
0.786121
0.786947
0.787873
0.789045
0.745038
0.746051
0.747073
0.748105
0.749148
0.750197
0.751249
0.752303
0.75336
0.754415
0.755462
0.756497
0.757526
0.758562
0.759611
0.760669
0.761727
0.762778
0.763826
0.76488
0.765949
0.767031
0.768117
0.769194
0.770253
0.771295
0.772328
0.773369
0.774431
0.775516
0.776611
0.777678
0.77869
0.779661
0.780647
0.781716
0.78289
0.784091
0.785193
0.786121
0.78695
0.787875
0.789039
0.74503
0.746047
0.747073
0.748109
0.749152
0.750201
0.751252
0.752306
0.753363
0.754419
0.755465
0.756499
0.757528
0.758563
0.759611
0.760669
0.761727
0.762778
0.763827
0.764885
0.765958
0.767042
0.768125
0.769196
0.770251
0.771294
0.772334
0.773381
0.774442
0.775522
0.77661
0.777674
0.778687
0.779662
0.780652
0.781725
0.782898
0.784096
0.785191
0.786114
0.786942
0.787878
0.789053
0.745029
0.746043
0.747067
0.748102
0.749148
0.7502
0.751256
0.752314
0.753372
0.754427
0.75547
0.756501
0.757528
0.758563
0.759613
0.760674
0.761733
0.762785
0.763833
0.764888
0.765958
0.767041
0.768126
0.769199
0.770255
0.771297
0.772334
0.77338
0.774444
0.775529
0.77662
0.777682
0.77869
0.77966
0.780652
0.781729
0.782906
0.784102
0.785191
0.786108
0.786937
0.787871
0.78905
0.745028
0.746044
0.74707
0.748107
0.749153
0.750205
0.751258
0.752314
0.753372
0.754427
0.755472
0.756505
0.757532
0.758566
0.759615
0.760675
0.761734
0.762785
0.763833
0.76489
0.765961
0.767042
0.768121
0.769189
0.770244
0.771291
0.772336
0.773384
0.774445
0.775524
0.776612
0.777677
0.778693
0.779669
0.780659
0.781729
0.782898
0.784093
0.78519
0.786117
0.786947
0.787877
0.789041
0.745028
0.746044
0.747071
0.748108
0.749152
0.750203
0.751256
0.752313
0.753372
0.754427
0.755471
0.756504
0.757531
0.758565
0.759613
0.760672
0.761731
0.762782
0.763828
0.764882
0.765951
0.767032
0.768115
0.769187
0.770243
0.771289
0.772331
0.773378
0.774441
0.775524
0.776614
0.777679
0.778693
0.779669
0.780661
0.781732
0.7829
0.784092
0.785188
0.786119
0.786937
0.787868
0.789047
0.745014
0.74603
0.747057
0.748096
0.74914
0.750189
0.75124
0.752296
0.753356
0.754413
0.755459
0.756492
0.75752
0.758554
0.759604
0.760663
0.76172
0.762772
0.763821
0.76488
0.765951
0.767031
0.768109
0.769178
0.770236
0.771286
0.772331
0.77338
0.774443
0.775525
0.776616
0.777681
0.778695
0.779671
0.780665
0.781738
0.782907
0.784097
0.785191
0.78612
0.786884
0.78786
0.78913
0.745013
0.746026
0.747052
0.748088
0.749133
0.750181
0.751233
0.75229
0.75335
0.754407
0.755454
0.756489
0.757519
0.758556
0.759605
0.760663
0.76172
0.76277
0.763819
0.764878
0.765952
0.767034
0.768113
0.769182
0.770239
0.771287
0.772331
0.773381
0.774447
0.775531
0.776622
0.777685
0.778697
0.779674
0.780671
0.781748
0.782918
0.784105
0.785194
0.786119
0.786933
0.787873
0.789072
0.745008
0.746022
0.747051
0.748089
0.749134
0.75018
0.751229
0.752286
0.753351
0.754415
0.755467
0.756504
0.757533
0.758566
0.759613
0.760668
0.761725
0.762777
0.763828
0.764888
0.765961
0.767041
0.768117
0.769183
0.770239
0.77129
0.77234
0.773393
0.774457
0.775538
0.776625
0.777687
0.7787
0.779679
0.780678
0.781756
0.782925
0.784111
0.785198
0.786121
0.786954
0.787892
0.789065
0.745025
0.746033
0.747058
0.748098
0.749144
0.750192
0.751243
0.752302
0.753367
0.75443
0.755479
0.756514
0.757543
0.758579
0.759628
0.760682
0.761734
0.762781
0.76383
0.764891
0.765967
0.767049
0.768127
0.769192
0.770245
0.77129
0.772334
0.773386
0.774457
0.775547
0.776637
0.777695
0.778697
0.77967
0.780672
0.78176
0.782939
0.784126
0.785202
0.786111
0.786938
0.787879
0.789061
0.745022
0.746031
0.747057
0.748098
0.749147
0.750198
0.751252
0.752313
0.753379
0.75444
0.755489
0.756522
0.757551
0.758585
0.759631
0.760685
0.761737
0.762785
0.763836
0.764898
0.765975
0.767055
0.76813
0.769193
0.770246
0.771295
0.772344
0.773398
0.774467
0.775552
0.776638
0.777693
0.778696
0.779672
0.780677
0.781768
0.782947
0.78413
0.785198
0.786104
0.786937
0.787889
0.789071
0.745023
0.746035
0.747061
0.748099
0.749144
0.750194
0.751248
0.752311
0.75338
0.754446
0.755497
0.756532
0.757559
0.758592
0.759637
0.76069
0.761743
0.762792
0.763842
0.764902
0.765977
0.767058
0.768136
0.769202
0.770254
0.771297
0.772338
0.773388
0.774461
0.775555
0.776649
0.777704
0.7787
0.779667
0.78067
0.781765
0.78295
0.784137
0.785204
0.786101
0.786929
0.787876
0.789061
0.745018
0.746031
0.74706
0.748101
0.749149
0.750199
0.751252
0.752312
0.753379
0.754444
0.755496
0.756533
0.757562
0.758596
0.759642
0.760695
0.761747
0.762794
0.763843
0.764904
0.765979
0.767061
0.768137
0.769201
0.770254
0.771299
0.772343
0.773395
0.774465
0.775553
0.776643
0.777699
0.778701
0.779675
0.780679
0.781769
0.782947
0.78413
0.7852
0.786106
0.786943
0.787888
0.789055
0.745026
0.746041
0.747067
0.748104
0.749149
0.750199
0.751252
0.752311
0.753376
0.754439
0.755491
0.756529
0.757558
0.758591
0.759634
0.760686
0.761738
0.762787
0.763838
0.7649
0.765977
0.767059
0.768137
0.769204
0.770257
0.7713
0.77234
0.773389
0.774459
0.775554
0.77665
0.777708
0.778706
0.779673
0.780672
0.781763
0.782948
0.784137
0.785208
0.786108
0.786938
0.787879
0.789047
0.745031
0.746045
0.747073
0.748114
0.749162
0.75021
0.751258
0.752312
0.753375
0.754438
0.75549
0.756527
0.757553
0.758584
0.759627
0.76068
0.761736
0.762788
0.76384
0.764901
0.765974
0.767055
0.768132
0.7692
0.770255
0.771299
0.772337
0.773383
0.774452
0.775547
0.776646
0.777707
0.778704
0.779667
0.780664
0.781756
0.782944
0.78414
0.785215
0.786113
0.786934
0.787866
0.789029
0.745029
0.746047
0.747075
0.748112
0.749156
0.750204
0.751255
0.752312
0.753376
0.754438
0.755488
0.756522
0.757547
0.758577
0.75962
0.760673
0.761729
0.762782
0.763836
0.764899
0.765974
0.767054
0.768132
0.769199
0.770254
0.771296
0.772332
0.773376
0.774444
0.775541
0.776643
0.777706
0.778702
0.779661
0.780653
0.781744
0.782937
0.784137
0.785212
0.786104
0.786919
0.787862
0.78904
0.745034
0.74605
0.747076
0.748115
0.749161
0.750209
0.751258
0.752313
0.753375
0.754438
0.75549
0.756527
0.757552
0.75858
0.75962
0.760672
0.761728
0.762781
0.763834
0.764895
0.765969
0.76705
0.768129
0.769198
0.770251
0.771289
0.772322
0.773366
0.774439
0.775542
0.776646
0.777705
0.778694
0.779647
0.780641
0.78174
0.782943
0.784148
0.785217
0.786096
0.786899
0.787826
0.789
0.745033
0.746047
0.747072
0.74811
0.749155
0.750202
0.751252
0.752308
0.753371
0.754435
0.755488
0.756525
0.75755
0.758577
0.759617
0.760669
0.761725
0.762778
0.763832
0.764893
0.765965
0.767045
0.768124
0.769194
0.77025
0.77129
0.772322
0.773362
0.774431
0.77553
0.776636
0.777701
0.778698
0.779654
0.780643
0.781733
0.782927
0.784132
0.78521
0.786101
0.7869
0.787827
0.789001
0.736678
0.73779
0.738912
0.740044
0.741179
0.742314
0.743449
0.744585
0.745722
0.746854
0.747972
0.74907
0.750156
0.751241
0.752335
0.753437
0.754539
0.755637
0.756738
0.757847
0.758966
0.76009
0.761209
0.762314
0.763399
0.764466
0.765526
0.766599
0.767702
0.768831
0.769952
0.771017
0.772013
0.772987
0.774016
0.775156
0.776379
0.777571
0.778609
0.779471
0.780303
0.7813
0.78251
0.736683
0.737791
0.738913
0.740045
0.741182
0.742319
0.743453
0.744586
0.745721
0.746853
0.747972
0.749073
0.75016
0.751247
0.752342
0.753444
0.754545
0.755641
0.756738
0.757846
0.758965
0.760089
0.761207
0.762311
0.763397
0.764467
0.76553
0.766603
0.767702
0.768825
0.769944
0.771013
0.772017
0.772995
0.774022
0.775154
0.77637
0.777561
0.778606
0.77948
0.78032
0.781307
0.7825
0.736697
0.737806
0.738926
0.740056
0.741189
0.742324
0.743459
0.744595
0.745732
0.746864
0.747984
0.749085
0.750173
0.75126
0.752355
0.753456
0.754556
0.755652
0.756748
0.757853
0.75897
0.760092
0.761212
0.76232
0.763409
0.764476
0.765533
0.766603
0.767707
0.768839
0.769964
0.771031
0.772026
0.772995
0.774023
0.775166
0.776392
0.777584
0.778619
0.779477
0.780311
0.781318
0.782535
0.736704
0.737813
0.738935
0.740066
0.741199
0.742333
0.743467
0.744603
0.74574
0.746873
0.747991
0.749088
0.750174
0.751262
0.752361
0.753466
0.754567
0.755661
0.756755
0.757858
0.758975
0.760101
0.761224
0.762333
0.76342
0.764485
0.765541
0.766612
0.767717
0.768849
0.769972
0.771036
0.772029
0.772999
0.77403
0.775177
0.776407
0.777598
0.778627
0.779478
0.780314
0.781315
0.782524
0.736699
0.737811
0.738932
0.74006
0.741192
0.742326
0.743462
0.744598
0.745734
0.746864
0.747982
0.749083
0.750172
0.751262
0.75236
0.753464
0.754566
0.755662
0.756759
0.757865
0.758983
0.76011
0.761233
0.762342
0.763427
0.764491
0.765546
0.766615
0.767719
0.768852
0.769977
0.771042
0.772035
0.773004
0.774034
0.775182
0.776412
0.777603
0.778629
0.779477
0.780314
0.78132
0.782532
0.736697
0.737807
0.738926
0.740053
0.741185
0.742319
0.743455
0.744593
0.74573
0.746861
0.747976
0.749074
0.750163
0.751255
0.752359
0.753468
0.754572
0.755667
0.756761
0.757864
0.758982
0.76011
0.761236
0.762346
0.763432
0.764496
0.765552
0.766621
0.767724
0.768854
0.769977
0.771042
0.772035
0.773004
0.774031
0.775177
0.776409
0.777602
0.77863
0.779477
0.780312
0.78132
0.782544
0.736696
0.737807
0.738929
0.74006
0.741194
0.742327
0.74346
0.744595
0.745733
0.746865
0.747982
0.74908
0.750167
0.751258
0.75236
0.753467
0.754572
0.755669
0.756764
0.757868
0.758985
0.760111
0.761234
0.762344
0.763432
0.764499
0.765555
0.766622
0.767719
0.768846
0.769969
0.771039
0.772038
0.773008
0.774031
0.775169
0.776396
0.777591
0.778624
0.779477
0.780313
0.781319
0.782545
0.736683
0.737796
0.73892
0.74005
0.741181
0.742313
0.743447
0.744584
0.745723
0.746855
0.747971
0.749068
0.750155
0.751248
0.752351
0.75346
0.754563
0.755656
0.756747
0.75785
0.758969
0.760099
0.761226
0.762337
0.763424
0.764491
0.76555
0.766621
0.767722
0.768848
0.769968
0.771034
0.77203
0.772999
0.774025
0.775168
0.776398
0.777592
0.778619
0.779467
0.780308
0.781318
0.782546
0.736661
0.737774
0.738899
0.740031
0.741165
0.742299
0.743435
0.744574
0.745714
0.746848
0.747966
0.749066
0.750156
0.751247
0.752346
0.75345
0.75455
0.755645
0.75674
0.757846
0.758965
0.760094
0.761221
0.762333
0.763423
0.764493
0.765553
0.766624
0.767721
0.768843
0.769961
0.771029
0.772031
0.773006
0.774031
0.775167
0.776389
0.777581
0.778615
0.779472
0.780319
0.781326
0.782542
0.736669
0.737786
0.738912
0.740044
0.741176
0.742309
0.743445
0.744584
0.745725
0.746859
0.747975
0.749072
0.75016
0.751252
0.752353
0.753458
0.754558
0.755651
0.756745
0.75785
0.758969
0.760097
0.761222
0.762332
0.76342
0.764491
0.765555
0.766628
0.767723
0.76884
0.769952
0.77102
0.772027
0.773007
0.774032
0.775163
0.776377
0.777567
0.778608
0.779475
0.780317
0.781339
0.782568
0.736657
0.737772
0.738899
0.740034
0.741171
0.742308
0.743444
0.74458
0.745717
0.746848
0.747966
0.749067
0.750156
0.751247
0.752347
0.75345
0.754552
0.755647
0.756744
0.75785
0.75897
0.760098
0.761222
0.762332
0.76342
0.764491
0.765552
0.766623
0.767716
0.768831
0.769943
0.771013
0.772023
0.773007
0.774032
0.775156
0.776363
0.77755
0.778602
0.779483
0.780241
0.781342
0.782674
0.736663
0.737775
0.738897
0.740028
0.741165
0.742305
0.743444
0.744582
0.745716
0.746843
0.747956
0.749053
0.750143
0.751237
0.752341
0.753448
0.754551
0.755648
0.756743
0.757848
0.758965
0.760092
0.761215
0.762324
0.763413
0.764486
0.76555
0.76662
0.76771
0.768819
0.769929
0.771002
0.772021
0.77301
0.774031
0.775145
0.776343
0.777532
0.778596
0.779495
0.780321
0.78134
0.782592
0.736664
0.737777
0.738899
0.74003
0.741165
0.7423
0.743436
0.744571
0.745706
0.746833
0.747947
0.749046
0.750135
0.751226
0.752325
0.753429
0.754533
0.755633
0.756732
0.757839
0.758958
0.760085
0.761209
0.762317
0.763405
0.764478
0.765545
0.766617
0.767706
0.768813
0.76992
0.770994
0.772016
0.773009
0.774033
0.775146
0.77634
0.777529
0.778595
0.779497
0.780347
0.781346
0.782575
0.736673
0.737783
0.7389
0.740028
0.741162
0.7423
0.743436
0.744571
0.745702
0.746824
0.747932
0.749025
0.750113
0.751207
0.752312
0.75342
0.754525
0.755623
0.756721
0.757828
0.758948
0.760076
0.761201
0.762311
0.7634
0.764472
0.765538
0.766611
0.767703
0.768813
0.769921
0.770994
0.772013
0.773005
0.774032
0.775149
0.776347
0.777535
0.778598
0.779498
0.780353
0.781347
0.782566
0.736669
0.737782
0.738903
0.740032
0.741167
0.742303
0.743439
0.744575
0.745706
0.746828
0.747935
0.749028
0.750115
0.751209
0.752313
0.753422
0.754527
0.755626
0.756727
0.757838
0.758962
0.76009
0.761211
0.762315
0.763402
0.764478
0.765549
0.766626
0.767716
0.768819
0.769922
0.770993
0.772015
0.773011
0.77404
0.775159
0.776357
0.777541
0.778598
0.779493
0.780348
0.781352
0.782582
0.73667
0.737779
0.7389
0.74003
0.741167
0.742307
0.743447
0.744585
0.745717
0.746837
0.747941
0.749031
0.750118
0.751213
0.752319
0.75343
0.754536
0.755635
0.756733
0.757841
0.758963
0.760091
0.761215
0.762322
0.763409
0.764482
0.765551
0.766628
0.767722
0.76883
0.769935
0.771001
0.772017
0.77301
0.774042
0.775166
0.776365
0.777545
0.778595
0.779488
0.780342
0.781349
0.782583
0.73667
0.737782
0.738904
0.740035
0.741173
0.742311
0.74345
0.744587
0.745719
0.74684
0.747946
0.749038
0.750124
0.751217
0.752323
0.753433
0.754539
0.755637
0.756736
0.757845
0.758966
0.760091
0.761208
0.762311
0.7634
0.76448
0.765555
0.766632
0.767721
0.768824
0.769927
0.770998
0.772021