/*--------------------------------*- C++ -*----------------------------------*\
  =========                 |
  \\      /  F ield         | OpenFOAM: The Open Source CFD Toolbox
   \\    /   O peration     | Website:  https://openfoam.org
    \\  /    A nd           | Version:  9
     \\/     M anipulation  |
\*---------------------------------------------------------------------------*/
FoamFile
{
    format      ascii;
    class       volScalarField;
    location    "1200";
    object      nut;
}
// * * * * * * * * * * * * * * * * * * * * * * * * * * * * * * * * * * * * * //

dimensions      [0 2 -1 0 0 0 0];

internalField   nonuniform List<scalar> 
82200
(
6.98446e-05
6.99266e-05
7.00079e-05
7.00887e-05
7.01694e-05
7.02503e-05
7.03316e-05
7.04127e-05
7.04931e-05
7.05728e-05
7.06526e-05
7.07334e-05
7.08142e-05
7.08938e-05
7.09715e-05
7.10475e-05
7.11239e-05
7.12011e-05
7.12782e-05
7.13542e-05
7.1429e-05
7.15035e-05
7.15791e-05
7.16564e-05
7.17342e-05
7.18115e-05
7.18865e-05
7.19587e-05
7.20289e-05
7.20977e-05
7.21686e-05
7.22432e-05
7.23203e-05
7.23984e-05
7.24715e-05
7.25365e-05
7.25982e-05
7.26584e-05
7.273e-05
7.28182e-05
7.2904e-05
7.2977e-05
7.30313e-05
6.98455e-05
6.99277e-05
7.00089e-05
7.00894e-05
7.01698e-05
7.02506e-05
7.03319e-05
7.0413e-05
7.04934e-05
7.0573e-05
7.06526e-05
7.07331e-05
7.08139e-05
7.08935e-05
7.09712e-05
7.10474e-05
7.11238e-05
7.12011e-05
7.12782e-05
7.13541e-05
7.14289e-05
7.15033e-05
7.15789e-05
7.16562e-05
7.17339e-05
7.18112e-05
7.18862e-05
7.19586e-05
7.20293e-05
7.20987e-05
7.21697e-05
7.2244e-05
7.23206e-05
7.23986e-05
7.24719e-05
7.25373e-05
7.25989e-05
7.2659e-05
7.27303e-05
7.28181e-05
7.29048e-05
7.29768e-05
7.3033e-05
6.98464e-05
6.99284e-05
7.00096e-05
7.00902e-05
7.01705e-05
7.02512e-05
7.03321e-05
7.0413e-05
7.04933e-05
7.05729e-05
7.06527e-05
7.07335e-05
7.08144e-05
7.08941e-05
7.09719e-05
7.10481e-05
7.11246e-05
7.12021e-05
7.12794e-05
7.13554e-05
7.14301e-05
7.15043e-05
7.15798e-05
7.1657e-05
7.17348e-05
7.18121e-05
7.18874e-05
7.19601e-05
7.20305e-05
7.20995e-05
7.21702e-05
7.22445e-05
7.23219e-05
7.24004e-05
7.24736e-05
7.25385e-05
7.25986e-05
7.26585e-05
7.27309e-05
7.28193e-05
7.29065e-05
7.29788e-05
7.3032e-05
6.9847e-05
6.99287e-05
7.00096e-05
7.00901e-05
7.01705e-05
7.02514e-05
7.03326e-05
7.04136e-05
7.0494e-05
7.05736e-05
7.06533e-05
7.07342e-05
7.08152e-05
7.08949e-05
7.09724e-05
7.10483e-05
7.11249e-05
7.12027e-05
7.12803e-05
7.13564e-05
7.14309e-05
7.1505e-05
7.15804e-05
7.16576e-05
7.17356e-05
7.18131e-05
7.18884e-05
7.1961e-05
7.20314e-05
7.21003e-05
7.21709e-05
7.22452e-05
7.23227e-05
7.24013e-05
7.24745e-05
7.25392e-05
7.25987e-05
7.26583e-05
7.27309e-05
7.28198e-05
7.29071e-05
7.29784e-05
7.30337e-05
6.98463e-05
6.9928e-05
7.00091e-05
7.00899e-05
7.01705e-05
7.02513e-05
7.03323e-05
7.04133e-05
7.04937e-05
7.05736e-05
7.06535e-05
7.07341e-05
7.08149e-05
7.08945e-05
7.09722e-05
7.10484e-05
7.1125e-05
7.12028e-05
7.12805e-05
7.13567e-05
7.14314e-05
7.15055e-05
7.1581e-05
7.16583e-05
7.17363e-05
7.18138e-05
7.1889e-05
7.19615e-05
7.20318e-05
7.21005e-05
7.2171e-05
7.22451e-05
7.23224e-05
7.2401e-05
7.24745e-05
7.25393e-05
7.2599e-05
7.26584e-05
7.27308e-05
7.28199e-05
7.29076e-05
7.29784e-05
7.30326e-05
6.98462e-05
6.99278e-05
7.0009e-05
7.009e-05
7.01707e-05
7.02514e-05
7.03322e-05
7.04131e-05
7.04935e-05
7.05733e-05
7.06533e-05
7.07341e-05
7.08149e-05
7.08943e-05
7.09717e-05
7.10479e-05
7.11247e-05
7.12028e-05
7.12808e-05
7.13572e-05
7.14318e-05
7.15057e-05
7.15809e-05
7.1658e-05
7.17359e-05
7.18135e-05
7.18888e-05
7.19613e-05
7.20316e-05
7.21004e-05
7.21709e-05
7.2245e-05
7.23223e-05
7.24008e-05
7.24743e-05
7.25392e-05
7.2599e-05
7.26584e-05
7.27307e-05
7.28199e-05
7.29076e-05
7.29785e-05
7.30318e-05
6.98475e-05
6.9929e-05
7.00099e-05
7.00907e-05
7.01713e-05
7.0252e-05
7.0333e-05
7.04139e-05
7.04942e-05
7.05737e-05
7.06536e-05
7.07344e-05
7.08152e-05
7.08946e-05
7.09719e-05
7.10479e-05
7.11245e-05
7.12024e-05
7.12802e-05
7.13567e-05
7.14314e-05
7.15055e-05
7.15807e-05
7.16576e-05
7.17354e-05
7.18129e-05
7.18881e-05
7.19609e-05
7.20314e-05
7.21004e-05
7.21708e-05
7.22445e-05
7.23214e-05
7.23999e-05
7.24737e-05
7.25391e-05
7.25991e-05
7.26584e-05
7.27303e-05
7.28193e-05
7.29069e-05
7.29791e-05
7.3032e-05
6.98461e-05
6.99273e-05
7.00083e-05
7.00892e-05
7.017e-05
7.0251e-05
7.03321e-05
7.0413e-05
7.04933e-05
7.05731e-05
7.06532e-05
7.07341e-05
7.08148e-05
7.08941e-05
7.09714e-05
7.10474e-05
7.11241e-05
7.1202e-05
7.12799e-05
7.13562e-05
7.14306e-05
7.15043e-05
7.15793e-05
7.16564e-05
7.17345e-05
7.18122e-05
7.18875e-05
7.19601e-05
7.20306e-05
7.21e-05
7.21709e-05
7.22448e-05
7.23216e-05
7.23999e-05
7.24737e-05
7.25391e-05
7.25989e-05
7.26582e-05
7.27301e-05
7.28191e-05
7.29067e-05
7.29773e-05
7.30314e-05
6.98448e-05
6.99261e-05
7.0007e-05
7.00877e-05
7.01683e-05
7.02493e-05
7.03306e-05
7.04118e-05
7.04924e-05
7.05723e-05
7.06526e-05
7.07337e-05
7.08147e-05
7.08942e-05
7.09718e-05
7.10479e-05
7.11244e-05
7.1202e-05
7.12794e-05
7.13555e-05
7.14301e-05
7.1504e-05
7.15791e-05
7.16561e-05
7.1734e-05
7.18116e-05
7.18871e-05
7.196e-05
7.20309e-05
7.21005e-05
7.21713e-05
7.2245e-05
7.23216e-05
7.23996e-05
7.24733e-05
7.25391e-05
7.25994e-05
7.26587e-05
7.27305e-05
7.28191e-05
7.29063e-05
7.29758e-05
7.30321e-05
6.98451e-05
6.99263e-05
7.0007e-05
7.00877e-05
7.01685e-05
7.02498e-05
7.03313e-05
7.04127e-05
7.04933e-05
7.05733e-05
7.06536e-05
7.07348e-05
7.08156e-05
7.08949e-05
7.09722e-05
7.10483e-05
7.11248e-05
7.12024e-05
7.12797e-05
7.13558e-05
7.14305e-05
7.15043e-05
7.15794e-05
7.16563e-05
7.17343e-05
7.18119e-05
7.18871e-05
7.19596e-05
7.20306e-05
7.21007e-05
7.21721e-05
7.22459e-05
7.23217e-05
7.23989e-05
7.24723e-05
7.25385e-05
7.25999e-05
7.26596e-05
7.27313e-05
7.28189e-05
7.29072e-05
7.29763e-05
7.30303e-05
6.98448e-05
6.99261e-05
7.00068e-05
7.00875e-05
7.01683e-05
7.02495e-05
7.0331e-05
7.04127e-05
7.04937e-05
7.05738e-05
7.06539e-05
7.07345e-05
7.0815e-05
7.08943e-05
7.09719e-05
7.1048e-05
7.11244e-05
7.12018e-05
7.12791e-05
7.13553e-05
7.143e-05
7.15041e-05
7.15794e-05
7.16565e-05
7.17344e-05
7.18119e-05
7.18871e-05
7.19596e-05
7.20308e-05
7.2101e-05
7.21723e-05
7.22458e-05
7.23212e-05
7.23981e-05
7.24715e-05
7.25379e-05
7.26003e-05
7.26604e-05
7.27318e-05
7.28185e-05
7.29254e-05
7.29778e-05
7.302e-05
6.98443e-05
6.99259e-05
7.00073e-05
7.00884e-05
7.01691e-05
7.025e-05
7.03311e-05
7.04125e-05
7.04936e-05
7.05739e-05
7.06542e-05
7.07348e-05
7.08149e-05
7.08937e-05
7.09709e-05
7.1047e-05
7.11235e-05
7.12012e-05
7.12786e-05
7.1355e-05
7.143e-05
7.15042e-05
7.15794e-05
7.16565e-05
7.17343e-05
7.18119e-05
7.1887e-05
7.19595e-05
7.20307e-05
7.21011e-05
7.21727e-05
7.22462e-05
7.2321e-05
7.23973e-05
7.24704e-05
7.25372e-05
7.26008e-05
7.26615e-05
7.27324e-05
7.28189e-05
7.29077e-05
7.29814e-05
7.30278e-05
6.98446e-05
6.9926e-05
7.0007e-05
7.00878e-05
7.01684e-05
7.02493e-05
7.03306e-05
7.0412e-05
7.04927e-05
7.05727e-05
7.06526e-05
7.07332e-05
7.08133e-05
7.08923e-05
7.09698e-05
7.10462e-05
7.11229e-05
7.12004e-05
7.12775e-05
7.13538e-05
7.14291e-05
7.15037e-05
7.15791e-05
7.16564e-05
7.17342e-05
7.18118e-05
7.1887e-05
7.19593e-05
7.20306e-05
7.21012e-05
7.21729e-05
7.22463e-05
7.23209e-05
7.23969e-05
7.247e-05
7.25369e-05
7.26009e-05
7.26618e-05
7.2732e-05
7.28182e-05
7.29028e-05
7.29796e-05
7.30248e-05
6.98436e-05
6.99253e-05
7.00068e-05
7.0088e-05
7.01685e-05
7.02491e-05
7.033e-05
7.04113e-05
7.04924e-05
7.05728e-05
7.0653e-05
7.07333e-05
7.08131e-05
7.08915e-05
7.09684e-05
7.10445e-05
7.11214e-05
7.11993e-05
7.12769e-05
7.13534e-05
7.14287e-05
7.15031e-05
7.15788e-05
7.16563e-05
7.17343e-05
7.1812e-05
7.18872e-05
7.19595e-05
7.20306e-05
7.21011e-05
7.21728e-05
7.22464e-05
7.23213e-05
7.23976e-05
7.24705e-05
7.25372e-05
7.26008e-05
7.26617e-05
7.27323e-05
7.28189e-05
7.29032e-05
7.29783e-05
7.30245e-05
6.98429e-05
6.99244e-05
7.00058e-05
7.00871e-05
7.01681e-05
7.02493e-05
7.03307e-05
7.0412e-05
7.0493e-05
7.05732e-05
7.06532e-05
7.07336e-05
7.08134e-05
7.0892e-05
7.09692e-05
7.10453e-05
7.1122e-05
7.11998e-05
7.12773e-05
7.13536e-05
7.14288e-05
7.15035e-05
7.15796e-05
7.16574e-05
7.17355e-05
7.18127e-05
7.18874e-05
7.19596e-05
7.20309e-05
7.21019e-05
7.21738e-05
7.22472e-05
7.23218e-05
7.23978e-05
7.24706e-05
7.25373e-05
7.26004e-05
7.26614e-05
7.27325e-05
7.28191e-05
7.29038e-05
7.29805e-05
7.30243e-05
6.98429e-05
6.99244e-05
7.00058e-05
7.00869e-05
7.01678e-05
7.02487e-05
7.03299e-05
7.04114e-05
7.04927e-05
7.05734e-05
7.06539e-05
7.07345e-05
7.08143e-05
7.08925e-05
7.09693e-05
7.10452e-05
7.11221e-05
7.12001e-05
7.12778e-05
7.13542e-05
7.14293e-05
7.15039e-05
7.15797e-05
7.16574e-05
7.17355e-05
7.18127e-05
7.18875e-05
7.19597e-05
7.20308e-05
7.21016e-05
7.21735e-05
7.22472e-05
7.23224e-05
7.23986e-05
7.24711e-05
7.25371e-05
7.26001e-05
7.26614e-05
7.27331e-05
7.28202e-05
7.29054e-05
7.29817e-05
7.30262e-05
6.98434e-05
6.99248e-05
7.00061e-05
7.00873e-05
7.01683e-05
7.02494e-05
7.03308e-05
7.04123e-05
7.04934e-05
7.05739e-05
7.06539e-05
7.07343e-05
7.08141e-05
7.08925e-05
7.09696e-05
7.10457e-05
7.11224e-05
7.12002e-05
7.12777e-05
7.1354e-05
7.14291e-05
7.15039e-05
7.158e-05
7.16577e-05
7.17354e-05
7.18119e-05
7.18863e-05
7.19586e-05
7.20304e-05
7.21017e-05
7.21737e-05
7.2247e-05
7.23215e-05
7.23976e-05
7.24705e-05
7.2537e-05
7.26008e-05
7.26623e-05
7.27331e-05
7.28201e-05
7.29055e-05
7.29777e-05
7.30294e-05
6.98434e-05
6.99248e-05
7.00061e-05
7.00872e-05
7.01682e-05
7.02493e-05
7.03306e-05
7.04119e-05
7.0493e-05
7.05736e-05
7.0654e-05
7.07347e-05
7.08145e-05
7.08929e-05
7.09699e-05
7.1046e-05
7.11228e-05
7.12006e-05
7.1278e-05
7.13542e-05
7.14292e-05
7.15039e-05
7.15797e-05
7.16573e-05
7.1735e-05
7.18117e-05
7.18862e-05
7.19585e-05
7.203e-05
7.21011e-05
7.21733e-05
7.2247e-05
7.23217e-05
7.23977e-05
7.24701e-05
7.25362e-05
7.26005e-05
7.26628e-05
7.27343e-05
7.28209e-05
7.29069e-05
7.29772e-05
7.30282e-05
6.98421e-05
6.99234e-05
7.00046e-05
7.00857e-05
7.01668e-05
7.02482e-05
7.03297e-05
7.04109e-05
7.04919e-05
7.05724e-05
7.06527e-05
7.07335e-05
7.08134e-05
7.08919e-05
7.09692e-05
7.10454e-05
7.11222e-05
7.12001e-05
7.12775e-05
7.13537e-05
7.14287e-05
7.15037e-05
7.158e-05
7.16578e-05
7.1735e-05
7.18113e-05
7.18857e-05
7.19583e-05
7.20302e-05
7.21015e-05
7.21734e-05
7.22469e-05
7.23217e-05
7.23979e-05
7.24705e-05
7.25366e-05
7.26009e-05
7.26632e-05
7.27346e-05
7.28207e-05
7.29248e-05
7.29754e-05
7.30195e-05
6.98417e-05
6.99231e-05
7.00041e-05
7.0085e-05
7.01658e-05
7.02471e-05
7.03285e-05
7.04098e-05
7.04908e-05
7.05715e-05
7.0652e-05
7.07329e-05
7.08129e-05
7.08916e-05
7.09691e-05
7.10455e-05
7.11225e-05
7.12003e-05
7.12778e-05
7.13538e-05
7.14287e-05
7.15036e-05
7.15799e-05
7.16578e-05
7.17355e-05
7.18119e-05
7.18863e-05
7.19586e-05
7.20302e-05
7.21013e-05
7.21735e-05
7.22476e-05
7.23225e-05
7.23985e-05
7.24706e-05
7.25363e-05
7.26009e-05
7.26639e-05
7.27356e-05
7.28222e-05
7.29096e-05
7.29807e-05
7.30269e-05
6.98427e-05
6.99238e-05
7.00047e-05
7.00855e-05
7.01665e-05
7.0248e-05
7.03296e-05
7.04107e-05
7.04914e-05
7.05718e-05
7.06523e-05
7.07335e-05
7.0814e-05
7.0893e-05
7.09705e-05
7.10469e-05
7.11235e-05
7.12009e-05
7.12779e-05
7.13538e-05
7.1429e-05
7.15042e-05
7.15807e-05
7.16584e-05
7.17356e-05
7.18116e-05
7.18858e-05
7.19583e-05
7.20303e-05
7.21017e-05
7.21739e-05
7.22479e-05
7.23227e-05
7.23985e-05
7.24707e-05
7.25365e-05
7.2601e-05
7.26641e-05
7.27357e-05
7.28223e-05
7.29052e-05
7.29801e-05
7.30242e-05
6.98443e-05
6.99259e-05
7.00065e-05
7.0087e-05
7.01676e-05
7.02489e-05
7.03304e-05
7.04117e-05
7.04926e-05
7.05732e-05
7.06539e-05
7.07351e-05
7.08153e-05
7.08938e-05
7.09711e-05
7.10475e-05
7.11244e-05
7.1202e-05
7.12789e-05
7.13542e-05
7.14287e-05
7.15036e-05
7.15802e-05
7.16583e-05
7.1736e-05
7.18123e-05
7.18864e-05
7.19584e-05
7.20296e-05
7.21005e-05
7.21727e-05
7.22474e-05
7.2323e-05
7.23991e-05
7.2471e-05
7.25361e-05
7.25998e-05
7.2663e-05
7.27353e-05
7.28224e-05
7.29061e-05
7.29815e-05
7.30243e-05
6.98443e-05
6.99258e-05
7.00065e-05
7.0087e-05
7.01679e-05
7.02495e-05
7.03313e-05
7.04127e-05
7.04937e-05
7.05745e-05
7.06554e-05
7.07366e-05
7.08167e-05
7.08952e-05
7.09723e-05
7.10484e-05
7.11249e-05
7.1202e-05
7.12787e-05
7.13541e-05
7.14289e-05
7.1504e-05
7.15806e-05
7.16587e-05
7.17361e-05
7.18121e-05
7.18861e-05
7.19584e-05
7.203e-05
7.21012e-05
7.21735e-05
7.2248e-05
7.23235e-05
7.23994e-05
7.24711e-05
7.25363e-05
7.25995e-05
7.26627e-05
7.27358e-05
7.28229e-05
7.2906e-05
7.29791e-05
7.30236e-05
6.98441e-05
6.99256e-05
7.00067e-05
7.00875e-05
7.01683e-05
7.02497e-05
7.03314e-05
7.04127e-05
7.04936e-05
7.05741e-05
7.0655e-05
7.07363e-05
7.08166e-05
7.08954e-05
7.09725e-05
7.10487e-05
7.11251e-05
7.12023e-05
7.1279e-05
7.13544e-05
7.1429e-05
7.1504e-05
7.15804e-05
7.16585e-05
7.17361e-05
7.18124e-05
7.18867e-05
7.19588e-05
7.20299e-05
7.21003e-05
7.21723e-05
7.22473e-05
7.23235e-05
7.24001e-05
7.24718e-05
7.25366e-05
7.25994e-05
7.26623e-05
7.27353e-05
7.28228e-05
7.29073e-05
7.29815e-05
7.30263e-05
6.98442e-05
6.99257e-05
7.00066e-05
7.00872e-05
7.0168e-05
7.02493e-05
7.03311e-05
7.04126e-05
7.04935e-05
7.0574e-05
7.06545e-05
7.07357e-05
7.08161e-05
7.0895e-05
7.09723e-05
7.10485e-05
7.11251e-05
7.12024e-05
7.12792e-05
7.13546e-05
7.14292e-05
7.15042e-05
7.15807e-05
7.16587e-05
7.17362e-05
7.18123e-05
7.18865e-05
7.19588e-05
7.20302e-05
7.21007e-05
7.21728e-05
7.22474e-05
7.2323e-05
7.23993e-05
7.24711e-05
7.25362e-05
7.25997e-05
7.26627e-05
7.27354e-05
7.28227e-05
7.29066e-05
7.29771e-05
7.30289e-05
6.98433e-05
6.99252e-05
7.00067e-05
7.00878e-05
7.01686e-05
7.02497e-05
7.03312e-05
7.04125e-05
7.04935e-05
7.05739e-05
7.06543e-05
7.07352e-05
7.08155e-05
7.08946e-05
7.09721e-05
7.10483e-05
7.11248e-05
7.1202e-05
7.12788e-05
7.13543e-05
7.14289e-05
7.15039e-05
7.15804e-05
7.16584e-05
7.17361e-05
7.18125e-05
7.18869e-05
7.19592e-05
7.20303e-05
7.21005e-05
7.21723e-05
7.22469e-05
7.23229e-05
7.23998e-05
7.2472e-05
7.2537e-05
7.26e-05
7.26622e-05
7.27345e-05
7.28219e-05
7.29065e-05
7.2978e-05
7.3031e-05
6.98436e-05
6.99255e-05
7.00069e-05
7.00879e-05
7.01688e-05
7.02503e-05
7.03321e-05
7.04135e-05
7.04941e-05
7.05739e-05
7.06541e-05
7.07349e-05
7.08152e-05
7.08942e-05
7.09715e-05
7.10475e-05
7.11238e-05
7.1201e-05
7.1278e-05
7.13539e-05
7.14288e-05
7.15039e-05
7.15802e-05
7.16581e-05
7.17358e-05
7.18124e-05
7.1887e-05
7.19594e-05
7.20305e-05
7.21005e-05
7.21721e-05
7.22466e-05
7.23229e-05
7.23998e-05
7.2472e-05
7.2537e-05
7.25995e-05
7.26615e-05
7.27341e-05
7.28215e-05
7.29061e-05
7.29779e-05
7.30322e-05
6.98424e-05
6.99244e-05
7.00062e-05
7.00876e-05
7.01687e-05
7.025e-05
7.03317e-05
7.04129e-05
7.04934e-05
7.05735e-05
7.06537e-05
7.07346e-05
7.08151e-05
7.08941e-05
7.09712e-05
7.10471e-05
7.11233e-05
7.12004e-05
7.12776e-05
7.13536e-05
7.14285e-05
7.15036e-05
7.158e-05
7.16578e-05
7.17356e-05
7.18124e-05
7.18871e-05
7.19596e-05
7.20304e-05
7.21001e-05
7.21713e-05
7.22456e-05
7.23221e-05
7.23995e-05
7.24724e-05
7.25376e-05
7.25991e-05
7.26601e-05
7.27322e-05
7.28197e-05
7.29058e-05
7.29789e-05
7.30315e-05
6.98428e-05
6.99248e-05
7.00064e-05
7.00875e-05
7.01685e-05
7.02499e-05
7.03317e-05
7.04131e-05
7.04937e-05
7.05737e-05
7.06538e-05
7.07346e-05
7.08152e-05
7.08943e-05
7.09716e-05
7.10475e-05
7.11237e-05
7.12009e-05
7.1278e-05
7.13539e-05
7.14287e-05
7.15036e-05
7.15798e-05
7.16576e-05
7.17357e-05
7.18127e-05
7.18874e-05
7.19595e-05
7.20297e-05
7.20989e-05
7.21702e-05
7.2245e-05
7.23221e-05
7.23997e-05
7.24722e-05
7.25369e-05
7.25976e-05
7.26586e-05
7.27314e-05
7.28193e-05
7.29059e-05
7.29794e-05
7.30332e-05
6.98424e-05
6.99246e-05
7.00062e-05
7.00874e-05
7.01683e-05
7.02497e-05
7.03314e-05
7.04127e-05
7.04932e-05
7.05731e-05
7.06534e-05
7.07344e-05
7.08152e-05
7.08946e-05
7.09718e-05
7.10475e-05
7.11235e-05
7.12006e-05
7.12777e-05
7.13536e-05
7.14286e-05
7.15035e-05
7.15796e-05
7.1657e-05
7.17347e-05
7.18118e-05
7.18867e-05
7.19592e-05
7.20297e-05
7.20989e-05
7.21697e-05
7.22439e-05
7.23207e-05
7.23986e-05
7.24718e-05
7.25373e-05
7.25983e-05
7.26586e-05
7.27307e-05
7.28181e-05
7.2905e-05
7.29786e-05
7.30318e-05
0.000243685
0.000243945
0.000244206
0.000244467
0.000244727
0.000244986
0.000245244
0.000245501
0.000245757
0.000246012
0.000246263
0.000246511
0.000246754
0.000246993
0.00024723
0.000247467
0.000247704
0.00024794
0.000248174
0.000248408
0.000248641
0.000248876
0.000249112
0.000249349
0.00024958
0.000249805
0.000250021
0.000250235
0.000250454
0.00025068
0.000250912
0.000251136
0.000251343
0.000251539
0.000251735
0.000251946
0.000252182
0.000252418
0.000252637
0.00025283
0.000252996
0.000253172
0.000253383
0.000243687
0.000243947
0.000244207
0.000244468
0.000244728
0.000244988
0.000245245
0.000245502
0.000245757
0.000246011
0.000246262
0.00024651
0.000246753
0.000246993
0.000247231
0.000247468
0.000247704
0.00024794
0.000248174
0.000248407
0.00024864
0.000248875
0.000249112
0.000249347
0.000249579
0.000249803
0.000250021
0.000250236
0.000250455
0.000250681
0.000250911
0.000251136
0.000251343
0.000251541
0.000251737
0.000251948
0.000252182
0.000252417
0.000252636
0.000252831
0.000253001
0.000253175
0.000253386
0.000243691
0.000243951
0.000244211
0.000244471
0.00024473
0.000244989
0.000245246
0.000245502
0.000245758
0.000246012
0.000246264
0.000246512
0.000246756
0.000246996
0.000247234
0.00024747
0.000247707
0.000247943
0.000248177
0.00024841
0.000248642
0.000248876
0.000249113
0.00024935
0.000249582
0.000249807
0.000250024
0.000250238
0.000250457
0.000250684
0.000250916
0.000251141
0.000251347
0.000251543
0.000251738
0.000251951
0.000252185
0.000252421
0.00025264
0.000252831
0.000252999
0.000253178
0.000253391
0.000243693
0.000243952
0.000244212
0.000244473
0.000244732
0.000244991
0.000245248
0.000245504
0.00024576
0.000246015
0.000246266
0.000246514
0.000246757
0.000246996
0.000247234
0.000247472
0.000247709
0.000247946
0.000248179
0.000248411
0.000248643
0.000248878
0.000249115
0.000249353
0.000249585
0.00024981
0.000250026
0.00025024
0.000250459
0.000250687
0.000250919
0.000251142
0.000251349
0.000251544
0.00025174
0.000251953
0.000252188
0.000252424
0.000252642
0.000252831
0.000252999
0.000253174
0.000253391
0.000243691
0.000243952
0.000244212
0.000244472
0.000244731
0.000244989
0.000245247
0.000245503
0.000245759
0.000246013
0.000246265
0.000246513
0.000246756
0.000246996
0.000247234
0.000247472
0.000247709
0.000247946
0.00024818
0.000248413
0.000248646
0.000248881
0.000249118
0.000249355
0.000249588
0.000249812
0.000250028
0.000250241
0.00025046
0.000250687
0.000250919
0.000251144
0.000251349
0.000251544
0.00025174
0.000251953
0.00025219
0.000252426
0.000252642
0.000252831
0.000252999
0.000253174
0.00025339
0.000243691
0.000243951
0.000244211
0.000244471
0.00024473
0.000244988
0.000245245
0.000245502
0.000245759
0.000246013
0.000246264
0.000246512
0.000246754
0.000246994
0.000247233
0.000247472
0.000247711
0.000247948
0.000248182
0.000248414
0.000248646
0.000248881
0.000249118
0.000249356
0.000249588
0.000249813
0.000250029
0.000250242
0.000250461
0.000250687
0.000250919
0.000251144
0.000251349
0.000251544
0.000251739
0.000251952
0.000252189
0.000252425
0.000252642
0.000252832
0.000252999
0.000253176
0.000253392
0.000243693
0.000243952
0.000244213
0.000244474
0.000244733
0.000244991
0.000245248
0.000245505
0.000245761
0.000246015
0.000246266
0.000246514
0.000246756
0.000246996
0.000247234
0.000247472
0.00024771
0.000247947
0.000248182
0.000248414
0.000248647
0.000248881
0.000249118
0.000249355
0.000249587
0.000249813
0.000250029
0.000250243
0.00025046
0.000250686
0.000250917
0.000251142
0.000251349
0.000251544
0.00025174
0.000251952
0.000252187
0.000252422
0.00025264
0.000252831
0.000252999
0.000253177
0.000253393
0.000243687
0.000243948
0.000244209
0.00024447
0.000244729
0.000244987
0.000245244
0.000245501
0.000245758
0.000246012
0.000246264
0.000246511
0.000246754
0.000246994
0.000247233
0.000247471
0.000247709
0.000247946
0.000248179
0.00024841
0.000248642
0.000248877
0.000249114
0.000249352
0.000249585
0.00024981
0.000250027
0.000250241
0.00025046
0.000250686
0.000250918
0.000251142
0.000251348
0.000251543
0.000251738
0.000251951
0.000252187
0.000252423
0.000252639
0.000252829
0.000252997
0.000253173
0.000253392
0.000243682
0.000243942
0.000244203
0.000244464
0.000244724
0.000244983
0.00024524
0.000245498
0.000245755
0.00024601
0.000246262
0.00024651
0.000246754
0.000246995
0.000247234
0.000247471
0.000247708
0.000247943
0.000248177
0.000248409
0.000248641
0.000248876
0.000249113
0.000249351
0.000249584
0.00024981
0.000250028
0.000250242
0.000250461
0.000250687
0.000250917
0.00025114
0.000251348
0.000251544
0.00025174
0.000251952
0.000252186
0.000252421
0.000252638
0.00025283
0.000253
0.000253174
0.000253393
0.000243684
0.000243944
0.000244205
0.000244467
0.000244727
0.000244986
0.000245243
0.000245501
0.000245758
0.000246013
0.000246265
0.000246513
0.000246756
0.000246996
0.000247235
0.000247473
0.00024771
0.000247945
0.000248178
0.00024841
0.000248643
0.000248877
0.000249114
0.000249351
0.000249583
0.000249809
0.000250028
0.000250243
0.000250462
0.000250687
0.000250917
0.00025114
0.000251347
0.000251543
0.00025174
0.000251951
0.000252185
0.000252419
0.000252637
0.00025283
0.000253003
0.000253177
0.000253396
0.00024368
0.000243941
0.000244202
0.000244464
0.000244725
0.000244985
0.000245243
0.0002455
0.000245757
0.000246012
0.000246263
0.000246511
0.000246755
0.000246995
0.000247233
0.000247471
0.000247707
0.000247943
0.000248176
0.000248409
0.000248642
0.000248877
0.000249114
0.000249351
0.000249584
0.000249809
0.000250027
0.000250242
0.000250461
0.000250686
0.000250915
0.000251138
0.000251345
0.000251542
0.000251739
0.000251949
0.000252183
0.000252416
0.000252636
0.000252832
0.000253022
0.000253171
0.000253401
0.000243681
0.000243942
0.000244202
0.000244464
0.000244724
0.000244984
0.000245242
0.000245501
0.000245757
0.000246012
0.000246263
0.000246509
0.000246752
0.000246991
0.00024723
0.000247468
0.000247706
0.000247942
0.000248176
0.000248408
0.000248641
0.000248876
0.000249112
0.000249349
0.000249582
0.000249808
0.000250027
0.000250242
0.00025046
0.000250684
0.000250913
0.000251136
0.000251344
0.000251543
0.000251739
0.000251947
0.000252179
0.000252413
0.000252635
0.000252835
0.000253009
0.000253189
0.000253396
0.000243682
0.000243942
0.000244203
0.000244464
0.000244724
0.000244983
0.000245241
0.000245498
0.000245754
0.000246008
0.000246259
0.000246506
0.000246748
0.000246988
0.000247226
0.000247464
0.000247701
0.000247938
0.000248172
0.000248405
0.000248639
0.000248874
0.000249111
0.000249348
0.00024958
0.000249807
0.000250026
0.000250242
0.00025046
0.000250684
0.000250911
0.000251134
0.000251343
0.000251542
0.000251739
0.000251947
0.000252179
0.000252413
0.000252634
0.000252835
0.000253004
0.00025319
0.000253388
0.000243682
0.000243943
0.000244203
0.000244463
0.000244723
0.000244982
0.00024524
0.000245498
0.000245754
0.000246007
0.000246257
0.000246502
0.000246743
0.000246982
0.000247221
0.00024746
0.000247698
0.000247935
0.000248169
0.000248402
0.000248636
0.000248872
0.00024911
0.000249347
0.00024958
0.000249806
0.000250025
0.00025024
0.000250459
0.000250683
0.000250912
0.000251135
0.000251344
0.000251542
0.000251739
0.000251948
0.00025218
0.000252414
0.000252635
0.000252836
0.000253006
0.000253189
0.000253387
0.00024368
0.000243941
0.000244202
0.000244463
0.000244723
0.000244983
0.000245241
0.000245499
0.000245755
0.000246009
0.000246258
0.000246503
0.000246745
0.000246984
0.000247223
0.000247461
0.000247699
0.000247936
0.00024817
0.000248404
0.000248639
0.000248876
0.000249113
0.00024935
0.000249581
0.000249807
0.000250027
0.000250244
0.000250463
0.000250687
0.000250914
0.000251135
0.000251344
0.000251543
0.000251741
0.000251951
0.000252182
0.000252415
0.000252635
0.000252834
0.000253005
0.000253194
0.000253391
0.000243681
0.000243941
0.000244201
0.000244462
0.000244722
0.000244982
0.000245241
0.0002455
0.000245758
0.000246012
0.000246261
0.000246506
0.000246746
0.000246985
0.000247224
0.000247463
0.000247701
0.000247939
0.000248173
0.000248406
0.00024864
0.000248876
0.000249114
0.000249351
0.000249583
0.000249809
0.000250028
0.000250244
0.000250463
0.000250688
0.000250916
0.000251138
0.000251346
0.000251544
0.000251741
0.000251951
0.000252184
0.000252417
0.000252636
0.000252835
0.000253006
0.000253195
0.000253394
0.000243682
0.000243942
0.000244202
0.000244463
0.000244724
0.000244984
0.000245244
0.000245502
0.000245759
0.000246012
0.000246261
0.000246506
0.000246747
0.000246986
0.000247225
0.000247464
0.000247702
0.000247939
0.000248174
0.000248407
0.000248642
0.000248877
0.000249114
0.000249349
0.00024958
0.000249806
0.000250027
0.000250244
0.000250463
0.000250687
0.000250914
0.000251136
0.000251345
0.000251545
0.000251742
0.000251951
0.000252183
0.000252416
0.000252636
0.000252837
0.00025301
0.000253189
0.000253398
0.000243682
0.000243942
0.000244203
0.000244463
0.000244723
0.000244983
0.000245242
0.000245501
0.000245758
0.000246011
0.000246261
0.000246506
0.000246747
0.000246985
0.000247225
0.000247463
0.000247702
0.000247939
0.000248173
0.000248405
0.000248639
0.000248875
0.000249112
0.000249348
0.00024958
0.000249806
0.000250026
0.000250243
0.000250462
0.000250686
0.000250914
0.000251137
0.000251345
0.000251545
0.000251742
0.00025195
0.000252183
0.000252417
0.000252637
0.000252838
0.00025301
0.000253185
0.000253397
0.000243676
0.000243936
0.000244197
0.000244458
0.000244719
0.000244978
0.000245237
0.000245495
0.000245752
0.000246006
0.000246256
0.000246501
0.000246742
0.000246982
0.000247221
0.00024746
0.000247699
0.000247936
0.00024817
0.000248404
0.000248639
0.000248874
0.000249111
0.000249347
0.000249578
0.000249804
0.000250025
0.000250243
0.000250462
0.000250687
0.000250914
0.000251137
0.000251345
0.000251545
0.000251743
0.000251952
0.000252185
0.000252418
0.000252638
0.000252838
0.00025303
0.000253176
0.000253402
0.000243675
0.000243934
0.000244194
0.000244455
0.000244715
0.000244974
0.000245233
0.000245491
0.000245749
0.000246003
0.000246253
0.000246499
0.000246741
0.000246981
0.000247221
0.00024746
0.000247698
0.000247935
0.00024817
0.000248403
0.000248638
0.000248874
0.000249111
0.000249347
0.000249579
0.000249805
0.000250025
0.000250243
0.000250463
0.000250687
0.000250915
0.000251138
0.000251346
0.000251546
0.000251744
0.000251953
0.000252187
0.000252421
0.00025264
0.000252839
0.000253013
0.000253192
0.0002534
0.000243674
0.000243934
0.000244194
0.000244456
0.000244716
0.000244976
0.000245234
0.000245492
0.00024575
0.000246005
0.000246256
0.000246504
0.000246746
0.000246986
0.000247225
0.000247463
0.000247701
0.000247937
0.000248172
0.000248406
0.000248641
0.000248877
0.000249113
0.000249348
0.000249579
0.000249805
0.000250026
0.000250245
0.000250465
0.000250689
0.000250916
0.000251138
0.000251346
0.000251546
0.000251745
0.000251955
0.000252188
0.000252421
0.00025264
0.000252839
0.000253008
0.000253195
0.000253393
0.00024368
0.000243939
0.000244199
0.00024446
0.00024472
0.00024498
0.000245239
0.000245498
0.000245756
0.000246011
0.000246262
0.000246508
0.00024675
0.00024699
0.00024723
0.000247468
0.000247705
0.00024794
0.000248174
0.000248407
0.000248642
0.000248878
0.000249115
0.000249351
0.000249581
0.000249806
0.000250025
0.000250243
0.000250464
0.000250689
0.000250917
0.000251139
0.000251346
0.000251544
0.000251743
0.000251955
0.000252189
0.000252423
0.00025264
0.000252836
0.000253005
0.000253194
0.000253392
0.00024368
0.000243938
0.000244198
0.00024446
0.000244721
0.000244982
0.000245242
0.000245501
0.00024576
0.000246016
0.000246267
0.000246513
0.000246755
0.000246994
0.000247233
0.000247471
0.000247707
0.000247942
0.000248176
0.000248409
0.000248645
0.000248881
0.000249117
0.000249351
0.000249581
0.000249806
0.000250027
0.000250246
0.000250467
0.000250691
0.000250918
0.000251139
0.000251346
0.000251545
0.000251745
0.000251957
0.000252191
0.000252423
0.000252639
0.000252834
0.000253003
0.000253191
0.000253393
0.00024368
0.00024394
0.000244201
0.000244462
0.000244722
0.000244982
0.000245242
0.000245501
0.00024576
0.000246017
0.000246268
0.000246515
0.000246757
0.000246996
0.000247234
0.000247472
0.000247708
0.000247944
0.000248177
0.00024841
0.000248645
0.000248881
0.000249117
0.000249353
0.000249583
0.000249807
0.000250026
0.000250243
0.000250464
0.00025069
0.000250919
0.00025114
0.000251346
0.000251544
0.000251743
0.000251956
0.000252191
0.000252424
0.00025264
0.000252833
0.000253004
0.000253192
0.000253395
0.00024368
0.00024394
0.000244201
0.000244463
0.000244723
0.000244984
0.000245243
0.000245502
0.00024576
0.000246016
0.000246267
0.000246514
0.000246756
0.000246995
0.000247234
0.000247472
0.000247708
0.000247943
0.000248177
0.00024841
0.000248645
0.000248881
0.000249117
0.000249352
0.000249582
0.000249807
0.000250026
0.000250244
0.000250465
0.00025069
0.000250917
0.000251138
0.000251345
0.000251544
0.000251744
0.000251956
0.00025219
0.000252422
0.000252639
0.000252834
0.000253006
0.000253186
0.000253398
0.00024368
0.000243941
0.000244202
0.000244463
0.000244724
0.000244983
0.000245242
0.000245501
0.000245759
0.000246014
0.000246265
0.000246512
0.000246754
0.000246994
0.000247232
0.000247469
0.000247706
0.000247941
0.000248175
0.000248409
0.000248643
0.00024888
0.000249117
0.000249352
0.000249583
0.000249807
0.000250027
0.000250243
0.000250464
0.00025069
0.000250918
0.00025114
0.000251347
0.000251545
0.000251744
0.000251956
0.00025219
0.000252424
0.000252639
0.000252834
0.000253005
0.000253186
0.000253399
0.000243681
0.000243942
0.000244203
0.000244465
0.000244726
0.000244986
0.000245245
0.000245503
0.00024576
0.000246014
0.000246265
0.000246511
0.000246753
0.000246992
0.00024723
0.000247467
0.000247704
0.00024794
0.000248175
0.000248408
0.000248643
0.000248879
0.000249116
0.000249351
0.000249582
0.000249808
0.000250027
0.000250243
0.000250463
0.000250689
0.000250918
0.00025114
0.000251347
0.000251544
0.000251742
0.000251954
0.000252189
0.000252424
0.000252641
0.000252835
0.000253004
0.000253182
0.000253396
0.000243678
0.00024394
0.000244202
0.000244464
0.000244724
0.000244984
0.000245243
0.000245502
0.000245759
0.000246014
0.000246264
0.00024651
0.000246752
0.00024699
0.000247228