/*--------------------------------*- C++ -*----------------------------------*\
  =========                 |
  \\      /  F ield         | OpenFOAM: The Open Source CFD Toolbox
   \\    /   O peration     | Website:  https://openfoam.org
    \\  /    A nd           | Version:  9
     \\/     M anipulation  |
\*---------------------------------------------------------------------------*/
FoamFile
{
    format      ascii;
    class       volScalarField;
    location    "1200";
    object      omega;
}
// * * * * * * * * * * * * * * * * * * * * * * * * * * * * * * * * * * * * * //

dimensions      [0 0 -1 0 0 0 0];

internalField   nonuniform List<scalar> 
82200
(
6820.97
6826.17
6831.38
6836.62
6841.89
6847.19
6852.52
6857.85
6863.2
6868.56
6873.93
6879.32
6884.7
6890.04
6895.37
6900.69
6906.03
6911.4
6916.75
6922.08
6927.42
6932.77
6938.17
6943.6
6949.03
6954.42
6959.75
6965.03
6970.31
6975.6
6980.95
6986.38
6991.79
6997.14
7002.36
7007.46
7012.65
7017.95
7023.46
7029.13
7034.47
7039.42
7044.26
6821.02
6826.21
6831.42
6836.64
6841.91
6847.21
6852.53
6857.87
6863.21
6868.56
6873.93
6879.32
6884.7
6890.05
6895.38
6900.7
6906.05
6911.42
6916.77
6922.1
6927.43
6932.78
6938.18
6943.61
6949.03
6954.43
6959.77
6965.06
6970.35
6975.64
6980.99
6986.41
6991.81
6997.16
7002.39
7007.49
7012.66
7017.95
7023.45
7029.12
7034.49
7039.45
7044.31
6821.05
6826.24
6831.45
6836.67
6841.93
6847.23
6852.54
6857.87
6863.22
6868.58
6873.96
6879.35
6884.74
6890.1
6895.43
6900.75
6906.11
6911.48
6916.83
6922.16
6927.48
6932.83
6938.23
6943.66
6949.08
6954.47
6959.81
6965.11
6970.38
6975.67
6981.02
6986.44
6991.86
6997.21
7002.43
7007.52
7012.67
7017.96
7023.49
7029.16
7034.52
7039.46
7044.3
6821.05
6826.24
6831.44
6836.68
6841.94
6847.24
6852.57
6857.91
6863.26
6868.62
6874
6879.39
6884.78
6890.13
6895.45
6900.78
6906.14
6911.52
6916.88
6922.2
6927.52
6932.86
6938.26
6943.69
6949.12
6954.52
6959.86
6965.15
6970.42
6975.7
6981.06
6986.48
6991.89
6997.24
7002.46
7007.54
7012.69
7017.98
7023.51
7029.19
7034.54
7039.48
7044.35
6821.02
6826.21
6831.43
6836.67
6841.93
6847.23
6852.55
6857.89
6863.24
6868.61
6873.98
6879.38
6884.76
6890.11
6895.44
6900.78
6906.14
6911.52
6916.88
6922.21
6927.54
6932.89
6938.29
6943.72
6949.15
6954.54
6959.87
6965.16
6970.43
6975.7
6981.05
6986.47
6991.88
6997.24
7002.46
7007.55
7012.7
7017.99
7023.52
7029.19
7034.55
7039.48
7044.34
6821.02
6826.21
6831.42
6836.66
6841.92
6847.21
6852.53
6857.86
6863.22
6868.58
6873.96
6879.35
6884.73
6890.08
6895.41
6900.75
6906.12
6911.52
6916.89
6922.22
6927.54
6932.88
6938.27
6943.71
6949.13
6954.53
6959.86
6965.15
6970.42
6975.7
6981.05
6986.46
6991.87
6997.23
7002.45
7007.54
7012.69
7017.98
7023.51
7029.19
7034.54
7039.48
7044.31
6821.05
6826.23
6831.44
6836.67
6841.93
6847.22
6852.54
6857.87
6863.22
6868.58
6873.95
6879.34
6884.72
6890.07
6895.4
6900.73
6906.09
6911.48
6916.85
6922.19
6927.51
6932.86
6938.25
6943.68
6949.11
6954.5
6959.84
6965.13
6970.41
6975.68
6981.02
6986.43
6991.84
6997.2
7002.43
7007.53
7012.68
7017.96
7023.48
7029.16
7034.52
7039.47
7044.29
6821
6826.18
6831.39
6836.64
6841.9
6847.2
6852.52
6857.85
6863.2
6868.56
6873.94
6879.33
6884.7
6890.05
6895.37
6900.7
6906.07
6911.45
6916.82
6922.14
6927.46
6932.8
6938.19
6943.63
6949.07
6954.47
6959.81
6965.11
6970.39
6975.68
6981.03
6986.43
6991.84
6997.2
7002.42
7007.52
7012.67
7017.95
7023.47
7029.15
7034.5
7039.43
7044.28
6820.94
6826.12
6831.33
6836.57
6841.84
6847.14
6852.46
6857.81
6863.17
6868.54
6873.92
6879.32
6884.7
6890.05
6895.38
6900.71
6906.06
6911.43
6916.78
6922.11
6927.43
6932.78
6938.17
6943.61
6949.05
6954.45
6959.8
6965.11
6970.4
6975.69
6981.03
6986.43
6991.83
6997.19
7002.42
7007.52
7012.67
7017.94
7023.46
7029.14
7034.49
7039.41
7044.29
6820.92
6826.11
6831.32
6836.56
6841.84
6847.15
6852.49
6857.84
6863.2
6868.57
6873.96
6879.36
6884.73
6890.07
6895.39
6900.72
6906.07
6911.45
6916.8
6922.12
6927.45
6932.79
6938.18
6943.62
6949.06
6954.46
6959.8
6965.11
6970.4
6975.7
6981.04
6986.44
6991.82
6997.17
7002.4
7007.51
7012.67
7017.95
7023.47
7029.14
7034.54
7039.39
7044.26
6820.94
6826.12
6831.33
6836.58
6841.86
6847.17
6852.51
6857.86
6863.22
6868.59
6873.96
6879.35
6884.72
6890.06
6895.39
6900.71
6906.06
6911.43
6916.79
6922.12
6927.45
6932.8
6938.2
6943.64
6949.07
6954.47
6959.81
6965.11
6970.41
6975.71
6981.04
6986.43
6991.8
6997.14
7002.38
7007.49
7012.67
7017.95
7023.46
7029.12
7035.04
7039.23
7044.04
6820.96
6826.16
6831.37
6836.62
6841.89
6847.19
6852.52
6857.87
6863.23
6868.6
6873.97
6879.34
6884.7
6890.03
6895.36
6900.69
6906.05
6911.43
6916.79
6922.12
6927.46
6932.81
6938.21
6943.64
6949.07
6954.47
6959.81
6965.11
6970.4
6975.7
6981.04
6986.42
6991.78
6997.12
7002.35
7007.47
7012.67
7017.95
7023.45
7029.13
7034.59
7039.46
7044.17
6820.95
6826.14
6831.35
6836.58
6841.85
6847.16
6852.49
6857.83
6863.18
6868.54
6873.91
6879.29
6884.65
6889.99
6895.32
6900.66
6906.01
6911.39
6916.75
6922.09
6927.43
6932.79
6938.19
6943.64
6949.06
6954.46
6959.8
6965.1
6970.4
6975.7
6981.03
6986.41
6991.76
6997.09
7002.33
7007.46
7012.66
7017.95
7023.43
7029.1
7034.45
7039.48
7044.1
6820.94
6826.14
6831.36
6836.6
6841.86
6847.16
6852.48
6857.83
6863.19
6868.55
6873.91
6879.27
6884.62
6889.94
6895.26
6900.6
6905.97
6911.36
6916.73
6922.07
6927.41
6932.78
6938.19
6943.64
6949.07
6954.47
6959.81
6965.1
6970.4
6975.7
6981.03
6986.41
6991.77
6997.1
7002.34
7007.46
7012.66
7017.96
7023.44
7029.11
7034.45
7039.48
7044.1
6820.89
6826.1
6831.33
6836.58
6841.86
6847.17
6852.51
6857.85
6863.21
6868.56
6873.92
6879.28
6884.63
6889.95
6895.28
6900.61
6905.98
6911.36
6916.73
6922.08
6927.42
6932.8
6938.22
6943.66
6949.09
6954.47
6959.81
6965.11
6970.41
6975.72
6981.05
6986.41
6991.77
6997.1
7002.34
7007.47
7012.66
7017.95
7023.44
7029.11
7034.45
7039.5
7044.1
6820.88
6826.08
6831.3
6836.55
6841.83
6847.14
6852.48
6857.84
6863.21
6868.58
6873.94
6879.3
6884.64
6889.96
6895.28
6900.62
6905.99
6911.38
6916.75
6922.09
6927.43
6932.8
6938.21
6943.66
6949.09
6954.47
6959.81
6965.11
6970.41
6975.71
6981.05
6986.43
6991.79
6997.12
7002.35
7007.46
7012.66
7017.96
7023.46
7029.13
7034.48
7039.52
7044.13
6820.88
6826.09
6831.31
6836.57
6841.85
6847.17
6852.51
6857.86
6863.22
6868.58
6873.94
6879.3
6884.64
6889.96
6895.28
6900.62
6905.99
6911.37
6916.74
6922.08
6927.42
6932.8
6938.21
6943.65
6949.06
6954.43
6959.77
6965.09
6970.4
6975.71
6981.04
6986.42
6991.77
6997.11
7002.34
7007.47
7012.68
7017.98
7023.46
7029.13
7034.5
7039.43
7044.2
6820.89
6826.09
6831.32
6836.57
6841.86
6847.17
6852.51
6857.86
6863.23
6868.59
6873.96
6879.32
6884.66
6889.98
6895.3
6900.64
6906
6911.38
6916.74
6922.07
6927.41
6932.78
6938.19
6943.63
6949.04
6954.42
6959.77
6965.07
6970.38
6975.69
6981.04
6986.42
6991.78
6997.11
7002.34
7007.45
7012.68
7018
7023.49
7029.15
7034.55
7039.38
7044.17
6820.84
6826.04
6831.27
6836.52
6841.81
6847.13
6852.47
6857.81
6863.18
6868.55
6873.91
6879.27
6884.62
6889.94
6895.27
6900.61
6905.98
6911.36
6916.72
6922.06
6927.41
6932.78
6938.19
6943.63
6949.03
6954.41
6959.75
6965.07
6970.39
6975.7
6981.04
6986.43
6991.79
6997.12
7002.35
7007.47
7012.7
7018.03
7023.51
7029.15
7035
7039.21
7044.03
6820.84
6826.03
6831.25
6836.5
6841.78
6847.09
6852.43
6857.78
6863.15
6868.53
6873.9
6879.27
6884.62
6889.95
6895.28
6900.63
6905.99
6911.38
6916.74
6922.07
6927.41
6932.79
6938.21
6943.65
6949.06
6954.44
6959.78
6965.09
6970.4
6975.72
6981.07
6986.46
6991.82
6997.14
7002.37
7007.49
7012.73
7018.07
7023.55
7029.2
7034.62
7039.46
7044.17
6820.87
6826.06
6831.27
6836.52
6841.8
6847.12
6852.45
6857.79
6863.16
6868.54
6873.92
6879.3
6884.67
6890
6895.33
6900.66
6906.02
6911.39
6916.75
6922.08
6927.43
6932.82
6938.23
6943.66
6949.06
6954.43
6959.78
6965.1
6970.42
6975.75
6981.09
6986.48
6991.83
6997.16
7002.39
7007.52
7012.76
7018.09
7023.57
7029.21
7034.51
7039.51
7044.14
6820.94
6826.13
6831.32
6836.56
6841.84
6847.15
6852.49
6857.84
6863.21
6868.59
6873.97
6879.35
6884.7
6890.03
6895.36
6900.7
6906.05
6911.42
6916.76
6922.09
6927.42
6932.8
6938.22
6943.66
6949.07
6954.44
6959.78
6965.09
6970.4
6975.72
6981.08
6986.48
6991.85
6997.17
7002.39
7007.51
7012.75
7018.09
7023.58
7029.21
7034.51
7039.55
7044.14
6820.94
6826.12
6831.33
6836.57
6841.85
6847.18
6852.53
6857.88
6863.25
6868.64
6874.02
6879.39
6884.74
6890.06
6895.38
6900.71
6906.05
6911.41
6916.76
6922.08
6927.43
6932.81
6938.23
6943.67
6949.07
6954.44
6959.79
6965.11
6970.43
6975.75
6981.1
6986.5
6991.86
6997.18
7002.41
7007.53
7012.75
7018.09
7023.59
7029.21
7034.51
7039.52
7044.15
6820.92
6826.11
6831.32
6836.57
6841.85
6847.17
6852.51
6857.87
6863.24
6868.63
6874.02
6879.4
6884.75
6890.08
6895.4
6900.73
6906.07
6911.43
6916.78
6922.11
6927.45
6932.83
6938.25
6943.69
6949.1
6954.47
6959.81
6965.11
6970.42
6975.74
6981.1
6986.51
6991.89
6997.21
7002.42
7007.54
7012.76
7018.1
7023.59
7029.22
7034.53
7039.57
7044.21
6820.9
6826.09
6831.3
6836.55
6841.83
6847.16
6852.51
6857.86
6863.24
6868.62
6874.01
6879.39
6884.75
6890.09
6895.41
6900.74
6906.09
6911.45
6916.8
6922.12
6927.47
6932.85
6938.26
6943.7
6949.11
6954.48
6959.82
6965.13
6970.44
6975.75
6981.11
6986.51
6991.88
6997.2
7002.42
7007.55
7012.77
7018.11
7023.6
7029.22
7034.53
7039.49
7044.28
6820.9
6826.1
6831.33
6836.58
6841.86
6847.17
6852.51
6857.87
6863.24
6868.62
6873.99
6879.37
6884.73
6890.07
6895.4
6900.72
6906.07
6911.43
6916.78
6922.11
6927.45
6932.84
6938.26
6943.7
6949.11
6954.49
6959.83
6965.13
6970.43
6975.74
6981.1
6986.51
6991.88
6997.21
7002.44
7007.55
7012.77
7018.1
7023.58
7029.21
7034.53
7039.51
7044.32
6820.93
6826.13
6831.35
6836.61
6841.89
6847.21
6852.55
6857.9
6863.25
6868.61
6873.98
6879.36
6884.71
6890.04
6895.36
6900.69
6906.03
6911.4
6916.77
6922.1
6927.45
6932.83
6938.24
6943.68
6949.09
6954.48
6959.82
6965.12
6970.42
6975.72
6981.08
6986.49
6991.87
6997.2
7002.42
7007.54
7012.74
7018.06
7023.57
7029.2
7034.52
7039.49
7044.34
6820.89
6826.11
6831.35
6836.6
6841.89
6847.2
6852.54
6857.88
6863.24
6868.6
6873.97
6879.34
6884.7
6890.03
6895.34
6900.66
6906
6911.38
6916.74
6922.08
6927.43
6932.81
6938.22
6943.66
6949.08
6954.46
6959.8
6965.1
6970.39
6975.69
6981.03
6986.44
6991.84
6997.18
7002.41
7007.52
7012.7
7018.01
7023.51
7029.15
7034.5
7039.47
7044.31
6820.91
6826.13
6831.35
6836.61
6841.89
6847.21
6852.55
6857.9
6863.25
6868.61
6873.97
6879.35
6884.71
6890.04
6895.35
6900.67
6906.01
6911.38
6916.74
6922.08
6927.42
6932.79
6938.21
6943.65
6949.07
6954.45
6959.78
6965.07
6970.35
6975.65
6981
6986.42
6991.82
6997.16
7002.38
7007.49
7012.66
7017.97
7023.49
7029.15
7034.5
7039.48
7044.31
6820.9
6826.11
6831.34
6836.59
6841.87
6847.19
6852.53
6857.87
6863.22
6868.59
6873.96
6879.34
6884.71
6890.04
6895.35
6900.66
6906
6911.37
6916.72
6922.06
6927.4
6932.78
6938.18
6943.62
6949.04
6954.43
6959.77
6965.06
6970.34
6975.63
6980.97
6986.39
6991.79
6997.15
7002.38
7007.49
7012.66
7017.95
7023.46
7029.12
7034.51
7039.45
7044.28
2910.95
2912.14
2913.35
2914.59
2915.86
2917.16
2918.5
2919.85
2921.22
2922.61
2924.01
2925.43
2926.87
2928.31
2929.77
2931.25
2932.76
2934.28
2935.83
2937.4
2938.96
2940.53
2942.08
2943.65
2945.26
2946.91
2948.6
2950.28
2951.9
2953.46
2955.03
2956.69
2958.47
2960.29
2962.06
2963.67
2965.18
2966.74
2968.51
2970.46
2972.4
2974.13
2975.63
2910.95
2912.14
2913.36
2914.59
2915.86
2917.16
2918.5
2919.86
2921.23
2922.61
2924.02
2925.44
2926.88
2928.32
2929.79
2931.26
2932.77
2934.3
2935.84
2937.4
2938.97
2940.53
2942.09
2943.67
2945.28
2946.92
2948.6
2950.27
2951.9
2953.47
2955.05
2956.7
2958.47
2960.28
2962.04
2963.66
2965.18
2966.76
2968.52
2970.46
2972.38
2974.12
2975.64
2910.95
2912.14
2913.36
2914.59
2915.87
2917.18
2918.51
2919.87
2921.24
2922.63
2924.03
2925.45
2926.89
2928.34
2929.8
2931.27
2932.77
2934.3
2935.85
2937.41
2938.98
2940.54
2942.1
2943.67
2945.27
2946.92
2948.61
2950.29
2951.91
2953.47
2955.04
2956.7
2958.48
2960.3
2962.05
2963.66
2965.17
2966.75
2968.53
2970.48
2972.4
2974.11
2975.61
2910.96
2912.14
2913.35
2914.59
2915.87
2917.18
2918.52
2919.88
2921.25
2922.63
2924.03
2925.46
2926.9
2928.35
2929.81
2931.28
2932.78
2934.31
2935.86
2937.43
2939
2940.56
2942.11
2943.67
2945.27
2946.93
2948.62
2950.3
2951.91
2953.46
2955.03
2956.7
2958.49
2960.32
2962.07
2963.66
2965.17
2966.75
2968.54
2970.5
2972.42
2974.14
2975.63
2910.94
2912.13
2913.35
2914.59
2915.87
2917.17
2918.51
2919.86
2921.24
2922.63
2924.03
2925.46
2926.89
2928.34
2929.8
2931.28
2932.78
2934.31
2935.87
2937.43
2939
2940.56
2942.11
2943.67
2945.27
2946.93
2948.62
2950.3
2951.91
2953.47
2955.04
2956.71
2958.5
2960.33
2962.07
2963.66
2965.16
2966.75
2968.54
2970.51
2972.42
2974.13
2975.63
2910.93
2912.12
2913.33
2914.58
2915.86
2917.17
2918.5
2919.85
2921.22
2922.61
2924.01
2925.44
2926.89
2928.34
2929.8
2931.27
2932.77
2934.3
2935.86
2937.43
2939
2940.56
2942.11
2943.67
2945.27
2946.93
2948.62
2950.3
2951.91
2953.46
2955.03
2956.7
2958.49
2960.32
2962.07
2963.66
2965.16
2966.74
2968.54
2970.5
2972.42
2974.12
2975.61
2910.93
2912.12
2913.33
2914.57
2915.85
2917.16
2918.49
2919.85
2921.21
2922.6
2924.01
2925.43
2926.87
2928.33
2929.79
2931.27
2932.77
2934.3
2935.85
2937.42
2938.99
2940.55
2942.11
2943.67
2945.27
2946.92
2948.61
2950.29
2951.91
2953.47
2955.04
2956.7
2958.48
2960.3
2962.06
2963.66
2965.17
2966.75
2968.53
2970.49
2972.41
2974.12
2975.61
2910.94
2912.12
2913.33
2914.57
2915.85
2917.16
2918.49
2919.85
2921.21
2922.59
2924
2925.43
2926.87
2928.32
2929.78
2931.25
2932.75
2934.28
2935.84
2937.41
2938.98
2940.54
2942.1
2943.67
2945.27
2946.93
2948.61
2950.29
2951.9
2953.46
2955.03
2956.69
2958.48
2960.31
2962.06
2963.66
2965.16
2966.74
2968.53
2970.5
2972.41
2974.12
2975.61
2910.93
2912.12
2913.33
2914.57
2915.85
2917.16
2918.49
2919.85
2921.21
2922.6
2924.01
2925.43
2926.86
2928.31
2929.76
2931.24
2932.75
2934.28
2935.83
2937.4
2938.98
2940.54
2942.11
2943.68
2945.27
2946.92
2948.6
2950.28
2951.9
2953.47
2955.04
2956.7
2958.47
2960.29
2962.05
2963.65
2965.17
2966.75
2968.53
2970.49
2972.4
2974.12
2975.62
2910.93
2912.12
2913.32
2914.56
2915.84
2917.16
2918.5
2919.85
2921.22
2922.6
2924
2925.43
2926.86
2928.31
2929.77
2931.25
2932.75
2934.28
2935.83
2937.4
2938.97
2940.54
2942.1
2943.68
2945.28
2946.93
2948.6
2950.27
2951.89
2953.47
2955.04
2956.7
2958.47
2960.28
2962.04
2963.65
2965.17
2966.76
2968.54
2970.49
2972.41
2974.1
2975.59
2910.94
2912.13
2913.35
2914.58
2915.85
2917.16
2918.5
2919.85
2921.22
2922.61
2924.01
2925.43
2926.86
2928.31
2929.77
2931.25
2932.76
2934.29
2935.84
2937.41
2938.98
2940.55
2942.11
2943.68
2945.28
2946.92
2948.6
2950.27
2951.89
2953.47
2955.04
2956.7
2958.46
2960.28
2962.03
2963.65
2965.18
2966.77
2968.55
2970.51
2972.51
2974.05
2975.49
2910.95
2912.13
2913.35
2914.59
2915.87
2917.17
2918.5
2919.85
2921.21
2922.6
2924
2925.43
2926.87
2928.32
2929.78
2931.26
2932.76
2934.29
2935.84
2937.41
2938.98
2940.55
2942.11
2943.68
2945.28
2946.92
2948.59
2950.26
2951.89
2953.47
2955.05
2956.7
2958.45
2960.26
2962.02
2963.66
2965.2
2966.78
2968.54
2970.47
2972.41
2974.08
2975.56
2910.94
2912.13
2913.34
2914.58
2915.85
2917.16
2918.49
2919.85
2921.21
2922.6
2924
2925.42
2926.85
2928.3
2929.77
2931.25
2932.76
2934.29
2935.84
2937.4
2938.97
2940.54
2942.1
2943.68
2945.28
2946.91
2948.58
2950.25
2951.88
2953.46
2955.05
2956.69
2958.44
2960.25
2962.01
2963.65
2965.19
2966.77
2968.53
2970.45
2972.37
2974.08
2975.57
2910.94
2912.13
2913.35
2914.59
2915.86
2917.16
2918.49
2919.84
2921.2
2922.58
2923.99
2925.42
2926.86
2928.31
2929.77
2931.25
2932.75
2934.28
2935.84
2937.4
2938.97
2940.54
2942.1
2943.67
2945.27
2946.91
2948.58
2950.25
2951.88
2953.46
2955.04
2956.69
2958.44
2960.25
2962.01
2963.65
2965.19
2966.77
2968.52
2970.44
2972.36
2974.08
2975.58
2910.94
2912.13
2913.35
2914.59
2915.86
2917.17
2918.5
2919.84
2921.21
2922.59
2923.99
2925.41
2926.85
2928.3
2929.76
2931.25
2932.76
2934.29
2935.84
2937.4
2938.96
2940.52
2942.09
2943.68
2945.28
2946.91
2948.57
2950.23
2951.86
2953.45
2955.04
2956.69
2958.44
2960.25
2962
2963.64
2965.18
2966.77
2968.53
2970.45
2972.36
2974.07
2975.57
2910.93
2912.12
2913.34
2914.59
2915.87
2917.17
2918.5
2919.84
2921.2
2922.58
2923.99
2925.42
2926.86
2928.31
2929.77
2931.25
2932.75
2934.28
2935.83
2937.4
2938.97
2940.53
2942.09
2943.67
2945.27
2946.91
2948.58
2950.25
2951.87
2953.45
2955.03
2956.69
2958.45
2960.26
2962.01
2963.63
2965.17
2966.76
2968.53
2970.46
2972.37
2974.08
2975.56
2910.93
2912.12
2913.34
2914.59
2915.86
2917.17
2918.5
2919.84
2921.2
2922.59
2923.99
2925.42
2926.86
2928.3
2929.76
2931.24
2932.75
2934.28
2935.83
2937.38
2938.95
2940.52
2942.09
2943.68
2945.28
2946.91
2948.57
2950.24
2951.87
2953.46
2955.05
2956.7
2958.45
2960.25
2962
2963.64
2965.19
2966.78
2968.53
2970.45
2972.36
2974.07
2975.57
2910.93
2912.12
2913.34
2914.59
2915.87
2917.17
2918.5
2919.84
2921.2
2922.58
2923.99
2925.42
2926.86
2928.3
2929.76
2931.24
2932.74
2934.27
2935.82
2937.38
2938.95
2940.52
2942.09
2943.67
2945.27
2946.91
2948.58
2950.25
2951.88
2953.46
2955.04
2956.7
2958.45
2960.26
2962.01
2963.64
2965.18
2966.77
2968.53
2970.46
2972.39
2974.08
2975.56
2910.93
2912.12
2913.33
2914.58
2915.86
2917.16
2918.49
2919.84
2921.2
2922.58
2923.98
2925.41
2926.85
2928.29
2929.75
2931.23
2932.74
2934.27
2935.82
2937.38
2938.94
2940.52
2942.09
2943.67
2945.28
2946.91
2948.58
2950.24
2951.87
2953.46
2955.04
2956.7
2958.46
2960.26
2962.01
2963.64
2965.18
2966.78
2968.54
2970.48
2972.46
2974.03
2975.48
2910.93
2912.12
2913.34
2914.59
2915.86
2917.17
2918.49
2919.84
2921.2
2922.59
2924
2925.42
2926.85
2928.3
2929.75
2931.24
2932.74
2934.28
2935.83
2937.39
2938.95
2940.52
2942.09
2943.67
2945.28
2946.92
2948.59
2950.25
2951.88
2953.46
2955.05
2956.71
2958.47
2960.27
2962.01
2963.64
2965.18
2966.78
2968.54
2970.47
2972.4
2974.07
2975.54
2910.94
2912.12
2913.33
2914.57
2915.85
2917.16
2918.5
2919.85
2921.22
2922.6
2924
2925.42
2926.85
2928.3
2929.76
2931.25
2932.76
2934.29
2935.83
2937.39
2938.95
2940.52
2942.1
2943.69
2945.3
2946.93
2948.59
2950.25
2951.88
2953.47
2955.07
2956.73
2958.48
2960.27
2962.01
2963.64
2965.19
2966.79
2968.55
2970.47
2972.37
2974.07
2975.56
2910.94
2912.13
2913.34
2914.58
2915.86
2917.17
2918.5
2919.85
2921.21
2922.6
2924.01
2925.43
2926.86
2928.3
2929.76
2931.24
2932.75
2934.29
2935.84
2937.4
2938.96
2940.53
2942.09
2943.68
2945.29
2946.94
2948.61
2950.27
2951.89
2953.47
2955.06
2956.73
2958.49
2960.29
2962.03
2963.65
2965.19
2966.79
2968.56
2970.48
2972.39
2974.08
2975.57
2910.94
2912.13
2913.34
2914.58
2915.86
2917.17
2918.5
2919.85
2921.21
2922.59
2924
2925.42
2926.85
2928.3
2929.76
2931.25
2932.76
2934.29
2935.84
2937.39
2938.96
2940.53
2942.11
2943.7
2945.31
2946.94
2948.6
2950.26
2951.88
2953.47
2955.07
2956.74
2958.5
2960.29
2962.02
2963.64
2965.19
2966.8
2968.57
2970.49
2972.38
2974.07
2975.57
2910.92
2912.11
2913.32
2914.57
2915.85
2917.17
2918.5
2919.85
2921.21
2922.6
2924
2925.42
2926.86
2928.31
2929.77
2931.25
2932.76
2934.3
2935.85
2937.41
2938.97
2940.54
2942.11
2943.69
2945.3
2946.95
2948.62
2950.28
2951.9
2953.47
2955.06
2956.73
2958.5
2960.3
2962.04
2963.65
2965.19
2966.79
2968.57
2970.5
2972.39
2974.09
2975.58
2910.92
2912.11
2913.33
2914.57
2915.85
2917.16
2918.5
2919.85
2921.22
2922.6
2924.01
2925.44
2926.87
2928.32
2929.78
2931.26
2932.77
2934.3
2935.85
2937.41
2938.98
2940.54
2942.12
2943.7
2945.31
2946.95
2948.62
2950.27
2951.89
2953.48
2955.08
2956.75
2958.51
2960.3
2962.03
2963.65
2965.2
2966.81
2968.58
2970.5
2972.38
2974.09
2975.59
2910.93
2912.12
2913.34
2914.58
2915.86
2917.17
2918.5
2919.85
2921.22
2922.6
2924.01
2925.43
2926.86
2928.31
2929.77
2931.26
2932.77
2934.31
2935.86
2937.42
2938.98
2940.55
2942.12
2943.7
2945.3
2946.95
2948.62
2950.29
2951.9
2953.48
2955.07
2956.74
2958.51
2960.31
2962.05
2963.66
2965.2
2966.8
2968.57
2970.5
2972.39
2974.1
2975.6
2910.95
2912.14
2913.35
2914.59
2915.86
2917.17
2918.5
2919.85
2921.21
2922.6
2924
2925.43
2926.86
2928.32
2929.78
2931.26
2932.77
2934.3
2935.85
2937.41
2938.98
2940.54
2942.11
2943.69
2945.29
2946.94
2948.61
2950.28
2951.9
2953.47
2955.05
2956.72
2958.49
2960.3
2962.05
2963.67
2965.2
2966.78
2968.56
2970.49
2972.4
2974.12
2975.62
2910.95
2912.14
2913.35
2914.6
2915.87
2917.18
2918.51
2919.85
2921.21
2922.59
2924
2925.42
2926.86
2928.31
2929.77
2931.26
2932.77
2934.3
2935.85
2937.41
2938.97
2940.54
2942.1
2943.68
2945.28
2946.92
2948.6
2950.27
2951.89
2953.47
2955.05
2956.71
2958.47
2960.29
2962.04
2963.66
2965.19
2966.77
2968.55
2970.48
2972.39
2974.1
2975.6
2910.96
2912.14
2913.36
2914.6
2915.88
2917.18
2918.51
2919.86
2921.22
2922.6
2924
2925.42
2926.86
2928.31
2929.77
2931.25
2932.76
2934.29
2935.84
2937.4
2938.97
2940.53
2942.09
2943.66
2945.27
2946.92
2948.61
2950.28
2951.89
2953.45
2955.03
2956.7
2958.48
2960.3
2962.05
2963.66
2965.17
2966.75
2968.53
2970.48
2972.41
2974.13
2975.62
2910.95
2912.14
2913.35
2914.59
2915.87
2917.18
2918.51
2919.85
2921.21
2922.59
2923.99
2925.41
2926.85
2928.31
2929.77
2931.25
2932.76
2934.28
2935.83
2937.39
2938.96
2940.53
2942.09
2943.66
2945.27
2946.91
2948.59
2950.26
2951.89
2953.47
2955.04
2956.7
2958.47
2960.28
2962.04
2963.66
2965.19
2966.77
2968.53
2970.47
2972.41
2974.12
2975.62
1694.93
1695.03
1695.17
1695.33
1695.54
1695.77
1696.03
1696.32
1696.62
1696.95
1697.3
1697.67
1698.05
1698.44
1698.86
1699.3
1699.77
1700.26
1700.77
1701.3
1701.84
1702.37
1702.91
1703.48
1704.08
1704.72
1705.37
1706
1706.58
1707.15
1707.77
1708.48
1709.26
1710.02
1710.69
1711.29
1711.88
1712.59
1713.43
1714.32
1715.12
1715.77
1716.36
1694.93
1695.03
1695.17
1695.33
1695.53
1695.77
1696.03
1696.32
1696.63
1696.95
1697.3
1697.67
1698.05
1698.45
1698.86
1699.31
1699.77
1700.26
1700.77
1701.3
1701.83
1702.37
1702.92
1703.49
1704.09
1704.72
1705.36
1705.98
1706.57
1707.15
1707.78
1708.49
1709.25
1710
1710.68
1711.28
1711.89
1712.6
1713.44
1714.32
1715.11
1715.77
1716.37
1694.93
1695.03
1695.17
1695.34
1695.54
1695.78
1696.04
1696.33
1696.64
1696.96
1697.31
1697.68
1698.06
1698.45
1698.87
1699.31
1699.77
1700.26
1700.78
1701.31
1701.84
1702.38
1702.92
1703.48
1704.08
1704.72
1705.37
1705.99
1706.58
1707.15
1707.77
1708.49
1709.26
1710.02
1710.69
1711.28
1711.88
1712.6
1713.45
1714.33
1715.12
1715.77
1716.36
1694.93
1695.03
1695.17
1695.34
1695.54
1695.78
1696.05
1696.33
1696.64
1696.96
1697.31
1697.68
1698.06
1698.46
1698.87
1699.31
1699.78
1700.27
1700.78
1701.32
1701.85
1702.38
1702.92
1703.48
1704.09
1704.73
1705.38
1706
1706.57
1707.14
1707.77
1708.5
1709.28
1710.03
1710.69
1711.28
1711.88
1712.6
1713.45
1714.34
1715.13
1715.77
1716.37
1694.92
1695.02
1695.16
1695.34
1695.54
1695.78
1696.04
1696.32
1696.63
1696.96
1697.31
1697.68
1698.06
1698.46
1698.87
1699.31
1699.78
1700.27
1700.79
1701.32
1701.85
1702.38
1702.92
1703.48
1704.09
1704.73
1705.38
1706
1706.57
1707.14
1707.78
1708.5
1709.28
1710.03
1710.69
1711.27
1711.88
1712.6
1713.46
1714.35
1715.13
1715.77
1716.37
1694.91
1695.01
1695.15
1695.33
1695.53
1695.77
1696.03
1696.32
1696.62
1696.95
1697.3
1697.68
1698.06
1698.46
1698.87
1699.31
1699.77
1700.27
1700.78
1701.32
1701.85
1702.38
1702.92
1703.48
1704.09
1704.73
1705.38
1706
1706.57
1707.14
1707.77
1708.5
1709.28
1710.03
1710.69
1711.27
1711.88
1712.6
1713.46
1714.35
1715.13
1715.77
1716.36
1694.91
1695.02
1695.15
1695.33
1695.53
1695.77
1696.03
1696.31
1696.62
1696.95
1697.3
1697.67
1698.05
1698.45
1698.87
1699.31
1699.77
1700.26
1700.78
1701.31
1701.85
1702.38
1702.92
1703.48
1704.08
1704.72
1705.37
1705.99
1706.58
1707.15
1707.78
1708.49
1709.26
1710.02
1710.69
1711.28
1711.88
1712.6
1713.45
1714.34
1715.12
1715.77
1716.36
1694.92
1695.02
1695.15
1695.32
1695.53
1695.77
1696.03
1696.31
1696.61
1696.94
1697.29
1697.67
1698.05
1698.45
1698.86
1699.3
1699.76
1700.26
1700.78
1701.31
1701.85
1702.38
1702.92
1703.49
1704.09
1704.73
1705.38
1705.99
1706.57
1707.14
1707.77
1708.49
1709.27
1710.02
1710.69
1711.27
1711.88
1712.6
1713.46
1714.35
1715.13
1715.77
1716.35
1694.91
1695.02
1695.16
1695.33
1695.53
1695.77
1696.03
1696.31
1696.62
1696.95
1697.3
1697.66
1698.04
1698.44
1698.85
1699.3
1699.77
1700.26
1700.78
1701.31
1701.85
1702.39
1702.93
1703.49
1704.09
1704.72
1705.37
1705.99
1706.57
1707.15
1707.78
1708.49
1709.26
1710.01
1710.68
1711.28
1711.89
1712.61
1713.46
1714.34
1715.12
1715.77
1716.37
1694.92
1695.02
1695.16
1695.33
1695.53
1695.77
1696.03
1696.32
1696.62
1696.95
1697.3
1697.66
1698.04
1698.44
1698.86
1699.3
1699.77
1700.26
1700.78
1701.31
1701.84
1702.38
1702.93
1703.5
1704.09
1704.72
1705.36
1705.98
1706.57
1707.15
1707.78
1708.49
1709.26
1710.01
1710.68
1711.28
1711.89
1712.61
1713.46
1714.34
1715.13
1715.76
1716.35
1694.93
1695.03
1695.17
1695.33
1695.53
1695.77
1696.03
1696.32
1696.62
1696.95
1697.3
1697.66
1698.04
1698.44
1698.86
1699.3
1699.77
1700.27
1700.78
1701.31
1701.85
1702.39
1702.93
1703.49
1704.09
1704.72
1705.36
1705.98
1706.57
1707.15
1707.78
1708.49
1709.25
1710
1710.68
1711.29
1711.9
1712.62
1713.46
1714.35
1715.17
1715.7
1716.3
1694.92
1695.03
1695.16
1695.33
1695.54
1695.77
1696.03
1696.31
1696.61
1696.94
1697.29
1697.66
1698.05
1698.45
1698.86
1699.3
1699.77
1700.26
1700.78
1701.31
1701.85
1702.39
1702.93
1703.49
1704.08
1704.71
1705.35
1705.98
1706.57
1707.16
1707.78
1708.48
1709.24
1709.99
1710.68
1711.29
1711.91
1712.62
1713.45
1714.32
1715.13
1715.74
1716.33
1694.92
1695.02
1695.16
1695.33
1695.53
1695.76
1696.03
1696.31
1696.62
1696.94
1697.29
1697.66
1698.04
1698.44
1698.86
1699.3
1699.77
1700.26
1700.77
1701.3
1701.84
1702.38
1702.92
1703.49
1704.08
1704.71
1705.34
1705.97
1706.57
1707.16
1707.78
1708.48
1709.24
1709.99
1710.67
1711.29
1711.91
1712.62
1713.44
1714.31
1715.11
1715.75
1716.34
1694.91
1695.02
1695.16
1695.33
1695.53
1695.76
1696.02
1696.31
1696.61
1696.94
1697.29
1697.66
1698.05
1698.44
1698.86
1699.3
1699.77
1700.26
1700.77
1701.3
1701.84
1702.38
1702.92
1703.48
1704.08
1704.7
1705.35
1705.97
1706.57
1707.15
1707.78
1708.48
1709.24
1709.99
1710.67
1711.29
1711.91
1712.61
1713.44
1714.31
1715.1
1715.76
1716.35
1694.92
1695.03
1695.16
1695.33
1695.53
1695.77
1696.03
1696.31
1696.61
1696.94
1697.29
1697.66
1698.04
1698.44
1698.86
1699.3
1699.77
1700.27
1700.78
1701.3
1701.83
1702.37
1702.92
1703.49
1704.08
1704.7
1705.34
1705.96
1706.56
1707.15
1707.78
1708.49
1709.24
1709.98
1710.67
1711.29
1711.9
1712.62
1713.44
1714.31
1715.1
1715.75
1716.35
1694.92
1695.02
1695.17
1695.34
1695.54
1695.77
1696.03
1696.31
1696.61
1696.93
1697.29
1697.66
1698.05
1698.45
1698.86
1699.3
1699.77
1700.26
1700.77
1701.3
1701.84
1702.38
1702.92
1703.48
1704.08
1704.71
1705.35
1705.97
1706.56
1707.15
1707.77
1708.48
1709.24
1709.99
1710.67
1711.28
1711.9
1712.61
1713.44
1714.32
1715.11
1715.75
1716.34
1694.92
1695.02
1695.16
1695.33
1695.54
1695.77
1696.03
1696.31
1696.61
1696.94
1697.29
1697.66
1698.04
1698.44
1698.86
1699.3
1699.77
1700.26
1700.77
1701.29
1701.82
1702.37
1702.92
1703.49
1704.09
1704.71
1705.34
1705.96
1706.56
1707.15
1707.79
1708.49
1709.24
1709.98
1710.67
1711.28
1711.91
1712.62
1713.44
1714.31
1715.1
1715.75
1716.35
1694.92
1695.02
1695.16
1695.33
1695.54
1695.77
1696.03
1696.3
1696.61
1696.93
1697.28
1697.65
1698.04
1698.44
1698.85
1699.29
1699.76
1700.25
1700.76
1701.29
1701.83
1702.37
1702.92
1703.49
1704.08
1704.71
1705.35
1705.97
1706.56
1707.15
1707.78
1708.49
1709.24
1709.99
1710.67
1711.28
1711.9
1712.62
1713.45
1714.32
1715.12
1715.75
1716.34
1694.92
1695.02
1695.15
1695.33
1695.53
1695.76
1696.02
1696.3
1696.6
1696.93
1697.28
1697.65
1698.03
1698.43
1698.85
1699.29
1699.76
1700.25
1700.76
1701.29
1701.82
1702.37
1702.92
1703.49
1704.09
1704.71
1705.34
1705.97
1706.56
1707.15
1707.79
1708.49
1709.24
1709.99
1710.66
1711.28
1711.9
1712.62
1713.45
1714.33
1715.15
1715.69
1716.3
1694.91
1695.02
1695.16
1695.33
1695.53
1695.77
1696.02
1696.3
1696.61
1696.94
1697.29
1697.66
1698.04
1698.43
1698.85
1699.29
1699.76
1700.25
1700.77
1701.29
1701.83
1702.37
1702.92
1703.49
1704.09
1704.71
1705.35
1705.97
1706.56
1707.15
1707.79
1708.49
1709.25
1709.99
1710.67
1711.28
1711.9
1712.62
1713.45
1714.33
1715.12
1715.74
1716.32
1694.92
1695.02
1695.15
1695.32
1695.53
1695.77
1696.03
1696.31
1696.62
1696.94
1697.29
1697.65
1698.03
1698.43
1698.85
1699.3
1699.77
1700.26
1700.77
1701.29
1701.83
1702.38
1702.93
1703.51
1704.1
1704.72
1705.35
1705.96
1706.56
1707.16
1707.8
1708.5
1709.25
1709.99
1710.66
1711.28
1711.91
1712.63
1713.45
1714.32
1715.1
1715.74
1716.34
1694.92
1695.02
1695.16
1695.33
1695.54
1695.77
1696.03
1696.31
1696.61
1696.95
1697.3
1697.66
1698.04
1698.43
1698.85
1699.3
1699.77
1700.27
1700.78
1701.3
1701.83
1702.38
1702.93
1703.5
1704.1
1704.73
1705.36
1705.98
1706.57
1707.16
1707.8
1708.51
1709.26
1710
1710.67
1711.28
1711.9
1712.63
1713.46
1714.33
1715.11
1715.75
1716.34
1694.92
1695.03
1695.16
1695.33
1695.53
1695.77
1696.03
1696.31
1696.61
1696.94
1697.29
1697.66
1698.03
1698.43
1698.86
1699.31
1699.78
1700.27
1700.78
1701.3
1701.83
1702.38
1702.94
1703.51
1704.11
1704.73
1705.35
1705.97
1706.56
1707.16
1707.81
1708.52
1709.27
1710
1710.66
1711.28
1711.91
1712.64
1713.47
1714.33
1715.1
1715.74
1716.34
1694.91
1695.01
1695.15
1695.32
1695.53
1695.77
1696.03
1696.31
1696.61
1696.94
1697.29
1697.66
1698.04
1698.44
1698.86
1699.31
1699.78
1700.27
1700.78
1701.31
1701.84
1702.38
1702.93
1703.5
1704.1
1704.73
1705.37
1705.99
1706.57
1707.16
1707.8
1708.51
1709.27
1710.01
1710.67
1711.28
1711.9
1712.63
1713.47
1714.33
1715.11
1715.75
1716.35
1694.91
1695.02
1695.16
1695.33
1695.53
1695.77
1696.03
1696.31
1696.62
1696.95
1697.3
1697.67
1698.05
1698.44
1698.86
1699.31
1699.78
1700.28
1700.78
1701.3
1701.84
1702.38
1702.94
1703.51
1704.11
1704.73
1705.36
1705.98
1706.57
1707.17
1707.81
1708.52
1709.27
1710
1710.67
1711.28
1711.91
1712.64
1713.47
1714.33
1715.1
1715.76
1716.36
1694.91
1695.02
1695.16
1695.33
1695.54
1695.77
1696.03
1696.31
1696.62
1696.95
1697.3
1697.67
1698.04
1698.44
1698.86
1699.31
1699.78
1700.28
1700.79
1701.31
1701.84
1702.39
1702.93
1703.5
1704.11
1704.73
1705.37
1705.99
1706.57
1707.16
1707.8
1708.51
1709.27
1710.01
1710.68
1711.29
1711.91
1712.63
1713.47
1714.34
1715.11
1715.76
1716.36
1694.92
1695.03
1695.17
1695.33
1695.54
1695.77
1696.03
1696.31
1696.62
1696.95
1697.3
1697.66
1698.05
1698.45
1698.87
1699.31
1699.78
1700.27
1700.78
1701.31
1701.84
1702.38
1702.93