/*--------------------------------*- C++ -*----------------------------------*\
  =========                 |
  \\      /  F ield         | OpenFOAM: The Open Source CFD Toolbox
   \\    /   O peration     | Website:  https://openfoam.org
    \\  /    A nd           | Version:  9
     \\/     M anipulation  |
\*---------------------------------------------------------------------------*/
FoamFile
{
    format      ascii;
    class       volScalarField;
    location    "1200";
    object      p;
}
// * * * * * * * * * * * * * * * * * * * * * * * * * * * * * * * * * * * * * //

dimensions      [0 2 -2 0 0 0 0];

internalField   nonuniform List<scalar> 
82200
(
0.410759
0.404473
0.398183
0.391894
0.385731
0.379718
0.373741
0.367692
0.361604
0.355613
0.349883
0.344334
0.338678
0.332772
0.326722
0.320787
0.315049
0.309444
0.303838
0.298157
0.292503
0.286986
0.281591
0.276257
0.270922
0.26544
0.259868
0.254185
0.248431
0.24292
0.237736
0.233062
0.228732
0.223856
0.21821
0.211628
0.204623
0.199415
0.196107
0.193323
0.189442
0.18177
0.172005
0.410773
0.404496
0.398196
0.391894
0.385721
0.379712
0.373748
0.367708
0.361625
0.355629
0.349893
0.344344
0.338686
0.332769
0.326709
0.320771
0.315041
0.309452
0.303857
0.298167
0.292491
0.286953
0.28155
0.276229
0.27091
0.265439
0.259878
0.254208
0.248466
0.24295
0.237738
0.23305
0.228727
0.223884
0.218261
0.211646
0.204593
0.19935
0.19602
0.193238
0.189259
0.181698
0.172008
0.410757
0.404478
0.398196
0.391915
0.385751
0.379733
0.373757
0.367708
0.361616
0.355612
0.349858
0.344294
0.33864
0.33274
0.326701
0.32078
0.315061
0.309481
0.303889
0.298192
0.292506
0.286952
0.281535
0.276208
0.270893
0.265455
0.259932
0.25427
0.24849
0.242898
0.237656
0.23301
0.228759
0.223982
0.218324
0.211599
0.204494
0.199222
0.19595
0.193266
0.189224
0.181571
0.171866
0.410758
0.404467
0.398182
0.391913
0.385766
0.37975
0.373768
0.367708
0.361609
0.355613
0.349868
0.344308
0.338653
0.332738
0.326677
0.320749
0.315051
0.309502
0.30393
0.298222
0.292508
0.286928
0.281496
0.276166
0.270856
0.265437
0.259944
0.254301
0.248522
0.242909
0.237651
0.233012
0.228783
0.224036
0.21836
0.211573
0.204422
0.199133
0.195911
0.193277
0.189169
0.181525
0.171821
0.410731
0.404434
0.39817
0.391933
0.385799
0.379768
0.373765
0.367697
0.361613
0.355629
0.349867
0.344278
0.338614
0.332711
0.32667
0.320756
0.315067
0.309523
0.30395
0.298231
0.292504
0.286916
0.281485
0.276157
0.270847
0.265439
0.25997
0.254349
0.248565
0.242913
0.237608
0.232961
0.228767
0.22406
0.218395
0.21157
0.204369
0.199076
0.195885
0.193254
0.189082
0.181436
0.171804
0.410686
0.404402
0.398166
0.391954
0.385825
0.379778
0.37376
0.367684
0.361603
0.355636
0.349886
0.344297
0.33862
0.332697
0.32664
0.320727
0.315057
0.30954
0.303989
0.298267
0.292515
0.286901
0.281453
0.27613
0.270836
0.265435
0.259959
0.254333
0.248569
0.242944
0.23765
0.232991
0.228769
0.224046
0.218391
0.211567
0.204353
0.199052
0.195854
0.193215
0.189009
0.181345
0.171762
0.410717
0.404411
0.398151
0.391927
0.385803
0.379773
0.373777
0.36771
0.361621
0.355639
0.349877
0.344279
0.3386
0.332686
0.326644
0.32074
0.315067
0.309538
0.303979
0.298258
0.292511
0.286901
0.281454
0.276133
0.270834
0.265421
0.259942
0.254341
0.248617
0.243005
0.23768
0.232957
0.228689
0.223979
0.218383
0.211614
0.204413
0.199074
0.195817
0.193138
0.188921
0.181321
0.171762
0.410686
0.404375
0.398116
0.391905
0.385796
0.379781
0.373796
0.367726
0.361633
0.355654
0.349897
0.344295
0.338599
0.332666
0.326615
0.320718
0.315064
0.309555
0.304008
0.298283
0.292515
0.28688
0.281428
0.276127
0.270849
0.265427
0.259917
0.254305
0.248608
0.243043
0.237749
0.233006
0.228689
0.223954
0.218352
0.211592
0.204407
0.199068
0.195821
0.193166
0.188928
0.181418
0.171732
0.410733
0.4044
0.398099
0.391858
0.385746
0.379756
0.373806
0.367752
0.361652
0.355659
0.349888
0.344272
0.338571
0.332655
0.326632
0.320756
0.31509
0.309552
0.303986
0.298265
0.292512
0.286886
0.281432
0.276128
0.270847
0.265413
0.259897
0.254304
0.248643
0.243106
0.237802
0.232999
0.228613
0.223863
0.21831
0.211622
0.204466
0.199092
0.195775
0.193101
0.189007
0.181626
0.171715
0.410713
0.404376
0.398071
0.391831
0.385728
0.379751
0.373816
0.367771
0.361671
0.355679
0.349915
0.344296
0.338578
0.332638
0.326602
0.320733
0.315084
0.309555
0.303995
0.298273
0.292512
0.286881
0.281429
0.276139
0.270873
0.265422
0.259873
0.25427
0.248636
0.243148
0.237865
0.233036
0.228606
0.223816
0.218274
0.211613
0.204444
0.199082
0.195753
0.19304
0.189318
0.181909
0.171589
0.410723
0.404388
0.398083
0.391827
0.385705
0.37972
0.373798
0.367778
0.361699
0.355702
0.34991
0.344265
0.33855
0.332633
0.326623
0.320769
0.315108
0.30955
0.30397
0.298243
0.292492
0.28688
0.281435
0.276148
0.270891
0.265428
0.259867
0.254264
0.248638
0.24318
0.237903
0.233051
0.22859
0.223749
0.218217
0.211598
0.204417
0.199092
0.195735
0.192833
0.18945
0.182464
0.171524
0.410672
0.404381
0.398125
0.391878
0.385722
0.379698
0.373757
0.367749
0.361704
0.355744
0.349974
0.344315
0.338563
0.332606
0.326584
0.320745
0.315099
0.309543
0.303964
0.298242
0.292494
0.286887
0.281442
0.276159
0.270913
0.26544
0.259855
0.254242
0.248632
0.243208
0.23794
0.233066
0.228572
0.223699
0.218193
0.211611
0.204403
0.199081
0.195698
0.19287
0.189528
0.182167
0.172097
0.410673
0.404374
0.398123
0.391885
0.385733
0.379709
0.37376
0.367749
0.361699
0.355733
0.349956
0.344288
0.338544
0.332615
0.326619
0.320787
0.315115
0.309527
0.30393
0.298204
0.292469
0.286886
0.281463
0.276184
0.270933
0.265437
0.259821
0.254209
0.24863
0.243246
0.237992
0.233087
0.228546
0.223635
0.21813
0.211586
0.204406
0.199104
0.195731
0.192914
0.189327
0.182045
0.172778
0.410644
0.404387
0.398172
0.391926
0.385733
0.379675
0.373716
0.367732
0.361723
0.355788
0.350023
0.344339
0.338558
0.332589
0.326561
0.320728
0.315086
0.309534
0.303954
0.298221
0.29247
0.286882
0.281471
0.276197
0.270949
0.265449
0.259818
0.254198
0.248614
0.243226
0.237987
0.233095
0.228556
0.223642
0.218117
0.211561
0.204388
0.199083
0.195722
0.192898
0.189193
0.182074
0.173202
0.410643
0.404382
0.39817
0.391938
0.385759
0.379702
0.373722
0.367718
0.361702
0.355769
0.350013
0.344339
0.338573
0.332616
0.326582
0.320729
0.315072
0.309513
0.303926
0.298193
0.292451
0.286892
0.281519
0.27625
0.270961
0.265408
0.259743
0.25415
0.248633
0.243283
0.238036
0.2331
0.228514
0.223595
0.218077
0.211538
0.204407
0.199101
0.195734
0.1929
0.189152
0.182068
0.173401
0.410651
0.404409
0.398197
0.391942
0.385739
0.379665
0.373683
0.367699
0.361709
0.355807
0.35007
0.344383
0.338591
0.332604
0.326547
0.320694
0.315056
0.309523
0.303951
0.298215
0.29246
0.286895
0.281531
0.276257
0.270958
0.265401
0.259733
0.254143
0.248618
0.243249
0.238003
0.233099
0.228552
0.223629
0.21807
0.211491
0.204348
0.199095
0.195788
0.192949
0.189191
0.182129
0.173325
0.410661
0.404406
0.39819
0.391944
0.385757
0.379691
0.3737
0.367701
0.361696
0.355791
0.350063
0.344383
0.338603
0.33262
0.326551
0.320683
0.315037
0.309495
0.303914
0.298186
0.292461
0.286943
0.281609
0.276313
0.270947
0.26533
0.259657
0.254115
0.248647
0.243297
0.238021
0.233087
0.228538
0.223596
0.218036
0.211472
0.204313
0.199112
0.195847
0.192974
0.189376
0.182378
0.173011
0.410679
0.404406
0.398173
0.391926
0.385747
0.379683
0.373691
0.367689
0.361691
0.355812
0.350104
0.344413
0.338612
0.332612
0.326537
0.32068
0.315049
0.309517
0.303935
0.298196
0.292457
0.286938
0.281612
0.276304
0.270924
0.265314
0.25966
0.254128
0.248641
0.243264
0.23798
0.233078
0.228578
0.223619
0.218015
0.211424
0.204257
0.199138
0.195942
0.193021
0.189688
0.182611
0.172595
0.410698
0.404408
0.398155
0.391913
0.385762
0.379718
0.373719
0.367687
0.361657
0.355778
0.35009
0.34441
0.338612
0.332616
0.326545
0.320687
0.315046
0.309494
0.303894
0.298168
0.292472
0.286994
0.281678
0.276332
0.270896
0.265257
0.259612
0.254111
0.24864
0.243271
0.237996
0.233098
0.228599
0.223605
0.21795
0.211369
0.204251
0.199208
0.196055
0.192986
0.189636
0.182919
0.172344
0.410724
0.404412
0.398135
0.391887
0.385748
0.379715
0.373724
0.367691
0.36166
0.355789
0.350108
0.344419
0.338605
0.332609
0.326551
0.320708
0.315077
0.309517
0.303895
0.298149
0.292441
0.286969
0.281671
0.276337
0.270908
0.265273
0.259621
0.254097
0.248594
0.243227
0.237991
0.233132
0.228644
0.223602
0.217882
0.211313
0.204266
0.199299
0.196202
0.193176
0.18959
0.18233
0.172594
0.410744
0.404406
0.398109
0.391866
0.385755
0.379747
0.373755
0.36769
0.361625
0.355747
0.350083
0.344413
0.338613
0.332631
0.326578
0.320725
0.315074
0.309498
0.303869
0.298137
0.292458
0.287008
0.28171
0.276351
0.270889
0.265232
0.259575
0.254057
0.24857
0.243235
0.238033
0.233175
0.228658
0.223575
0.217822
0.21129
0.204333
0.199408
0.196322
0.193263
0.1893
0.181914
0.173033
0.410777
0.404444
0.398124
0.391851
0.385732
0.379732
0.373746
0.367679
0.361617
0.355755
0.350103
0.344429
0.338607
0.332614
0.326573
0.320741
0.31511
0.30953
0.303871
0.298108
0.292421
0.28698
0.281703
0.276365
0.270918
0.265275
0.259605
0.254039
0.2485
0.243156
0.238013
0.233222
0.228724
0.223614
0.21779
0.211244
0.204368
0.199495
0.196442
0.193351
0.189087
0.181614
0.173158
0.410777
0.404435
0.398111
0.39184
0.385729
0.379738
0.373752
0.367673
0.361603
0.35574
0.35009
0.344434
0.338623
0.332631
0.326583
0.320735
0.315092
0.309513
0.303865
0.298118
0.292444
0.287008
0.281725
0.276368
0.27089
0.265236
0.259577
0.254027
0.248509
0.243174
0.23803
0.233232
0.228709
0.223595
0.217779
0.21126
0.204462
0.199595
0.196499
0.193361
0.188957
0.181473
0.173161
0.41075
0.404424
0.39812
0.39186
0.385744
0.379744
0.37375
0.367666
0.361593
0.355722
0.350068
0.344426
0.33864
0.332663
0.326619
0.320757
0.315096
0.309506
0.303853
0.298108
0.292439
0.287001
0.281713
0.276357
0.270894
0.265268
0.259626
0.254042
0.248459
0.243088
0.237968
0.233241
0.228772
0.22366
0.217813
0.211263
0.204472
0.199629
0.196549
0.193403
0.188882
0.181347
0.173001
0.410764
0.40443
0.398113
0.39184
0.385719
0.379729
0.373755
0.367685
0.361608
0.355717
0.350046
0.344413
0.338644
0.332672
0.32662
0.320742
0.315077
0.309497
0.303858
0.298128
0.292464
0.287019
0.281718
0.276351
0.27088
0.265255
0.259629
0.254055
0.248475
0.243104
0.237961
0.23322
0.228752
0.22365
0.217843
0.211321
0.204524
0.19967
0.19655
0.19338
0.18887
0.181376
0.172749
0.410727
0.404439
0.39816
0.391886
0.385736
0.37971
0.373718
0.367657
0.361601
0.355715
0.350035
0.344409
0.338663
0.332711
0.326663
0.320764
0.315074
0.309484
0.303843
0.298119
0.292465
0.287018
0.281708
0.276342
0.270875
0.265267
0.259658
0.254072
0.248464
0.243063
0.237912
0.23319
0.228755
0.223697
0.217913
0.211384
0.20457
0.199672
0.196531
0.193409
0.188937
0.181372
0.172518
0.410742
0.404459
0.398162
0.391869
0.38572
0.379718
0.373744
0.36768
0.361597
0.355678
0.349992
0.344394
0.338675
0.332734
0.326678
0.320754
0.31504
0.309449
0.303829
0.298135
0.292493
0.287032
0.281702
0.276331
0.270873
0.265287
0.259691
0.254098
0.248474
0.24305
0.237886
0.233155
0.228719
0.223707
0.217967
0.211453
0.204637
0.199643
0.196448
0.193413
0.189027
0.181413
0.172345
0.410718
0.404451
0.398181
0.391905
0.385749
0.37972
0.373715
0.367647
0.361579
0.35567
0.349995
0.344418
0.338707
0.332767
0.326705
0.320763
0.315034
0.309435
0.303814
0.298126
0.292492
0.287022
0.281678
0.276314
0.270875
0.265312
0.259726
0.254123
0.248479
0.243027
0.237848
0.233107
0.22868
0.223733
0.218042
0.211546
0.204732
0.199631
0.196368
0.193411
0.189118
0.181406
0.172189
0.410736
0.404462
0.398181
0.391895
0.38574
0.379724
0.373733
0.367671
0.361584
0.355633
0.349935
0.344373
0.33869
0.332773
0.326721
0.320776
0.315037
0.30943
0.303812
0.298134
0.292503
0.287016
0.281655
0.276305
0.270904
0.265372
0.25978
0.254134
0.248445
0.242974
0.237816
0.233108
0.228699
0.223777
0.218078
0.21155
0.204714
0.199562
0.196298
0.19345
0.189322
0.18157
0.172078
0.410742
0.404473
0.398189
0.391899
0.385738
0.379718
0.373726
0.367668
0.361588
0.355636
0.349947
0.344402
0.338722
0.332791
0.326723
0.320772
0.31503
0.30942
0.303807
0.298135
0.292502
0.287001
0.281618
0.276268
0.270893
0.265389
0.259816
0.25417
0.248471
0.242984
0.23779
0.23306
0.228663
0.223785
0.21816
0.211651
0.204754
0.199525
0.196173
0.193331
0.189412
0.181726
0.172032
0.410663
0.404377
0.398087
0.391797
0.385632
0.379618
0.373641
0.367591
0.361503
0.355511
0.34978
0.344231
0.338575
0.332669
0.326619
0.320683
0.314945
0.30934
0.303734
0.298053
0.292398
0.28688
0.281484
0.276149
0.270814
0.265333
0.259761
0.254079
0.248325
0.242814
0.237628
0.232953
0.228622
0.223749
0.218105
0.211522
0.204517
0.199302
0.195991
0.19321
0.189335
0.181671
0.171906
0.410677
0.4044
0.3981
0.391797
0.385622
0.379612
0.373647
0.367607
0.361524
0.355528
0.34979
0.344241
0.338583
0.332666
0.326605
0.320667
0.314937
0.309348
0.303753
0.298063
0.292387
0.286847
0.281443
0.276121
0.270802
0.265332
0.259772
0.254102
0.24836
0.242843
0.23763
0.232941
0.228618
0.223777
0.218155
0.21154
0.204486
0.199237
0.195904
0.193127
0.189154
0.181599
0.171909
0.410661
0.404381
0.398099
0.391817
0.385653
0.379633
0.373657
0.367607
0.361515
0.35551
0.349756
0.344192
0.338537
0.332637
0.326598
0.320675
0.314957
0.309377
0.303785
0.298088
0.292401
0.286846
0.281428
0.2761
0.270786
0.265347
0.259825
0.254164
0.248384
0.242791
0.237549
0.232901
0.228649
0.223875
0.218218
0.211494
0.204387
0.199109
0.195833
0.193155
0.18912
0.181476
0.171769
0.410662
0.404371
0.398085
0.391815
0.385667
0.37965
0.373668
0.367607
0.361509
0.355511
0.349765
0.344205
0.33855
0.332635
0.326574
0.320645
0.314946
0.309398
0.303825
0.298117
0.292403
0.286822
0.28139
0.276059
0.270748
0.26533
0.259837
0.254195
0.248416
0.242802
0.237543
0.232902
0.228673
0.223929
0.218256
0.211469
0.204315
0.199018
0.195793
0.193165
0.189067
0.18143
0.171724
0.410636
0.404338
0.398073
0.391835
0.385701
0.379669
0.373665
0.367597
0.361511
0.355527
0.349765
0.344176
0.338511
0.332608
0.326567
0.320652
0.314962
0.309418
0.303845
0.298127
0.292399
0.286811
0.281379
0.27605
0.27074
0.265332
0.259862
0.254242
0.248459
0.242806
0.2375
0.232851
0.228657
0.223954
0.218291
0.211466
0.204262
0.198961
0.195767
0.193143
0.188981
0.181342
0.171706
0.41059
0.404306
0.398068
0.391856
0.385726
0.379679
0.373661
0.367584
0.361502
0.355534
0.349783
0.344194
0.338517
0.332594
0.326537
0.320623
0.314952
0.309435
0.303884
0.298162
0.292411
0.286795
0.281347
0.276023
0.270728
0.265328
0.259852
0.254227
0.248463
0.242837
0.237542
0.232881
0.228659
0.223939
0.218286
0.211463
0.204246
0.198937
0.195736
0.193104
0.188907
0.181251
0.171665
0.410621
0.404314
0.398054
0.39183
0.385704
0.379674
0.373677
0.36761
0.36152
0.355537
0.349775
0.344177
0.338497
0.332583
0.326541
0.320636
0.314962
0.309433
0.303874
0.298153
0.292407
0.286796
0.281348
0.276026
0.270727
0.265314
0.259834
0.254234
0.248511
0.242899
0.237573
0.232848
0.228579
0.223872
0.218278
0.211509
0.204305
0.19896
0.1957
0.193027
0.18882
0.181228
0.171664
0.41059
0.404279
0.398019
0.391807
0.385697
0.379682
0.373696
0.367626
0.361532
0.355552
0.349795
0.344192
0.338496
0.332563
0.326511
0.320614
0.314959
0.309449
0.303904
0.298179
0.29241
0.286774
0.281322
0.27602
0.270742
0.26532
0.25981
0.254199
0.248502
0.242936
0.237641
0.232896
0.228579
0.223847
0.218247
0.211487
0.2043
0.198954
0.195703
0.193055
0.188826
0.181323
0.171634
0.410637
0.404304
0.398003
0.39176
0.385647
0.379657
0.373706
0.367652
0.361551
0.355557
0.349786
0.34417
0.338469
0.332552
0.326528
0.320651
0.314985
0.309447
0.303881
0.298161
0.292407
0.28678
0.281325
0.276021
0.27074
0.265307
0.25979
0.254197
0.248537
0.242999
0.237694
0.23289
0.228504
0.223755
0.218204
0.211517
0.204359
0.198979
0.195658
0.192991
0.188903
0.181527
0.171616
0.410617
0.404281
0.397975
0.391734
0.385628
0.379651
0.373716
0.367671
0.36157
0.355578
0.349813
0.344193
0.338475
0.332535
0.326498
0.320629
0.314979
0.30945
0.30389
0.298168
0.292407
0.286776
0.281322
0.276033
0.270766
0.265315
0.259766
0.254163
0.248529
0.243041
0.237758
0.232927
0.228497
0.223708
0.218168
0.211508
0.204338
0.198969
0.195637
0.192932
0.189214
0.181807
0.17149
0.410627
0.404293
0.397987
0.39173
0.385606
0.379621
0.373697
0.367677
0.361598
0.3556
0.349808
0.344163
0.338447
0.33253
0.32652
0.320664
0.315003
0.309445
0.303865
0.298139
0.292388
0.286775
0.281329
0.276041
0.270783
0.265322
0.259761
0.254157
0.248532
0.243073
0.237796
0.232942
0.22848
0.223641
0.218112
0.211493
0.204311
0.198979
0.19562
0.19273
0.189347
0.18235
0.171428
0.410576
0.404285
0.398028
0.39178
0.385624
0.379599
0.373657
0.367649
0.361602
0.355642
0.349872
0.344212
0.338459
0.332503
0.32648
0.320641
0.314994
0.309438
0.30386
0.298137
0.292389
0.286781
0.281336
0.276052
0.270805
0.265333
0.259748
0.254135
0.248526
0.243101
0.237832
0.232957
0.228462
0.223591
0.218087
0.211506
0.204298
0.198969
0.195583
0.192763
0.189423
0.182063
0.171995
0.410577
0.404278
0.398027
0.391788
0.385634
0.379609
0.373659
0.367649
0.361598
0.355631
0.349854
0.344186
0.338441
0.332512
0.326515
0.320682
0.315011
0.309422
0.303825
0.2981
0.292364
0.28678
0.281356
0.276077
0.270826
0.26533
0.259714
0.254102
0.248523
0.243138
0.237885
0.232979
0.228436
0.223528
0.218024
0.211481
0.204301
0.198993
0.195616
0.192805
0.189223
0.181947
0.172673
0.410548
0.404291
0.398075
0.391828
0.385635
0.379575
0.373616
0.367631
0.361621
0.355686
0.349921
0.344236
0.338455
0.332486
0.326458
0.320624
0.314982
0.30943
0.303849
0.298117
0.292365
0.286777
0.281364
0.27609
0.270841
0.265342
0.259711
0.254091
0.248507
0.243119
0.237879
0.232987
0.228447
0.223535
0.218011
0.211456
0.204283
0.198971
0.195607
0.192788
0.189089
0.181976
0.173096
0.410547
0.404286
0.398073
0.39184
0.38566
0.379603
0.373622
0.367618
0.361601
0.355667
0.349911
0.344237
0.33847
0.332513
0.326479
0.320625
0.314967
0.309408
0.303822
0.298089
0.292347
0.286786
0.281412
0.276143
0.270854
0.265302
0.259636
0.254043
0.248526
0.243175
0.237928
0.232991
0.228404
0.223487
0.217971
0.211433
0.204302
0.198989
0.195619
0.19279
0.189049
0.181972
0.173295
0.410555
0.404313
0.3981
0.391844
0.385641
0.379566
0.373583
0.367598
0.361608
0.355704
0.349967
0.344281
0.338488
0.332501
0.326444
0.32059
0.314951
0.309418
0.303847
0.298111
0.292355
0.28679
0.281424
0.27615
0.270851
0.265294
0.259626
0.254035
0.248512
0.243142
0.237896
0.23299
0.228442
0.223521
0.217964
0.211386
0.204242
0.198983
0.195673
0.19284
0.189089
0.182033
0.173219
0.410565
0.40431
0.398093
0.391846
0.385659
0.379591
0.373599
0.3676
0.361594
0.355688
0.34996
0.344281
0.338501
0.332518
0.326448
0.32058
0.314932
0.30939
0.30381
0.298081
0.292356
0.286836
0.281502
0.276206
0.27084
0.265224
0.25955
0.254008
0.24854
0.24319
0.237914
0.232978
0.228428
0.223489
0.217931
0.211367
0.204207
0.198999
0.195732
0.192866
0.189272
0.182278
0.172907
0.410583
0.40431
0.398076
0.391828
0.385649
0.379584
0.37359
0.367588
0.361589
0.355709
0.350001
0.344311
0.338509
0.332509
0.326434
0.320576
0.314944
0.309412
0.303831
0.298091
0.292352
0.286832
0.281506
0.276198
0.270817
0.265207
0.259552
0.25402
0.248534
0.243157
0.237873
0.23297
0.228468
0.223512
0.217909
0.211319
0.204152
0.199026
0.195827
0.192914
0.189584
0.182506
0.172492
0.410602
0.404312
0.398058
0.391815
0.385663
0.379618
0.373619
0.367586
0.361556
0.355676
0.349988
0.344308
0.33851
0.332513
0.326442
0.320583
0.314941
0.309389
0.303789
0.298063
0.292367
0.286888
0.281571
0.276226
0.27079
0.26515
0.259505
0.254004
0.248533
0.243164
0.237888
0.232989
0.228489
0.223498
0.217845
0.211264
0.204146
0.199095
0.195939
0.192883
0.189534
0.182805
0.172244
0.410628
0.404317
0.398038
0.39179
0.385649
0.379616
0.373624
0.36759
0.361558
0.355687
0.350006
0.344316
0.338503
0.332507
0.326448
0.320604
0.314972
0.309413
0.30379
0.298044
0.292336
0.286863
0.281565
0.276231
0.270801
0.265166
0.259514
0.25399
0.248487
0.24312
0.237884
0.233024
0.228535
0.223495
0.217777
0.211207
0.204159
0.199185
0.196086
0.19307
0.189487
0.182227
0.17249
0.410648
0.40431
0.398012
0.391768
0.385655
0.379647
0.373655
0.36759
0.361524
0.355645
0.349981
0.344311
0.33851
0.332528
0.326474
0.32062
0.31497
0.309393
0.303765
0.298033
0.292353
0.286901
0.281603
0.276245
0.270782
0.265126
0.259468
0.25395
0.248463
0.243127
0.237925
0.233067
0.228549
0.223469
0.217717
0.211184
0.204226
0.199295
0.196206
0.193155
0.189197
0.181817
0.172927
0.410681
0.404348
0.398028
0.391753
0.385633
0.379632
0.373646
0.367578
0.361516
0.355653
0.350001
0.344327
0.338505
0.332511
0.326469
0.320636
0.315005
0.309426
0.303766
0.298003
0.292316
0.286874
0.281597
0.276259
0.270812
0.265169
0.259499
0.253932
0.248393
0.243048
0.237905
0.233113
0.228615
0.223507
0.217685
0.211138
0.204261
0.199382
0.196326
0.193242
0.188986
0.181519
0.173051
0.410681
0.404339
0.398015
0.391742
0.38563
0.379639
0.373653
0.367572
0.361502
0.355637
0.349988
0.344331
0.338521
0.332528
0.32648
0.320631
0.314987
0.309409
0.303761
0.298013
0.292339
0.286902
0.281619
0.276262
0.270784
0.26513
0.259471
0.25392
0.248402
0.243066
0.237922
0.233124
0.2286
0.223489
0.217673
0.211153
0.204353
0.199481
0.196383
0.193252
0.188857
0.181378
0.173055
0.410655
0.404328
0.398023
0.391762
0.385645
0.379644
0.373651
0.367565
0.361491
0.35562
0.349965
0.344323
0.338537
0.33256
0.326516
0.320652
0.314991
0.309402
0.303749
0.298004
0.292335
0.286895
0.281607
0.276251
0.270788
0.265161
0.259519
0.253935
0.248353
0.242981
0.23786
0.233132
0.228662
0.223554
0.217708
0.211157
0.204364
0.199515
0.196432
0.193294
0.188783
0.181254
0.172896
0.410668
0.404334
0.398017
0.391743
0.38562
0.379629
0.373655
0.367584
0.361506
0.355615
0.349943
0.34431
0.338541
0.332569
0.326517
0.320637
0.314972
0.309393
0.303753
0.298023
0.292359
0.286913
0.281611
0.276245
0.270773
0.265148
0.259522
0.253948
0.248369
0.242996
0.237853
0.233111
0.228643
0.223544
0.217738
0.211214
0.204415
0.199555
0.196434
0.193271
0.18877
0.18128
0.172646
0.410631
0.404343
0.398064
0.391789
0.385637
0.379611
0.373618
0.367556
0.361499
0.355613
0.349933
0.344307
0.33856
0.332608
0.326559
0.320659
0.314969
0.309379
0.303738
0.298015
0.29236
0.286912
0.281602
0.276235
0.270769
0.265161
0.259551
0.253966
0.248357
0.242955
0.237804
0.233081
0.228646
0.22359
0.217808
0.211278
0.204462
0.199557
0.196413
0.1933
0.188836
0.181276
0.172417
0.410646
0.404363
0.398066
0.391772
0.385622
0.379619
0.373644
0.367579
0.361496
0.355576
0.349889
0.344291
0.338571
0.33263
0.326575
0.320651
0.314936
0.309345
0.303725
0.298031
0.292388
0.286926
0.281595
0.276224
0.270766
0.26518
0.259585
0.253991
0.248367
0.242943
0.237778
0.233046
0.22861
0.2236
0.217862
0.211347
0.204529
0.19953
0.196331
0.193302
0.188924
0.181316
0.172246
0.410622
0.404355
0.398084
0.391807
0.385651
0.379621
0.373616
0.367547
0.361478
0.355567
0.349892
0.344314
0.338604
0.332663
0.326601
0.320659
0.31493
0.309331
0.30371
0.298022
0.292387
0.286916
0.281571
0.276207
0.270768
0.265205
0.25962
0.254016
0.248373
0.24292
0.23774
0.232998
0.22857
0.223626
0.217936
0.21144
0.204625
0.199517
0.196251
0.193299
0.189014
0.18131
0.172091
0.41064
0.404366
0.398084
0.391798
0.385642
0.379625
0.373633
0.36757
0.361483
0.35553
0.349832
0.34427
0.338587
0.33267
0.326618
0.320672
0.314933
0.309326
0.303708
0.29803
0.292398
0.28691
0.281549
0.276198
0.270797
0.265265
0.259673
0.254027
0.248339
0.242867
0.237708
0.232999
0.228589
0.22367
0.217972
0.211444
0.204607
0.199448
0.196181
0.193338
0.189217
0.181471
0.171978
0.410646
0.404377
0.398092
0.391801
0.385639
0.379619
0.373627
0.367568
0.361487
0.355533
0.349843
0.344298
0.338618
0.332688
0.326619
0.320668
0.314926
0.309316
0.303703
0.29803
0.292397
0.286896
0.281512
0.276161
0.270786
0.265282
0.259709
0.254063
0.248365
0.242876
0.237683
0.232952
0.228554
0.223678
0.218054
0.211545
0.204646
0.199412
0.196057
0.19322
0.189305
0.181626
0.171933
0.410578
0.404292
0.398001
0.391709
0.385542
0.379527
0.373549
0.367499
0.361409
0.355415
0.349684
0.344134
0.338477
0.332572
0.326521
0.320583
0.314844
0.30924
0.303633
0.297952
0.292297
0.286778
0.281381
0.276045
0.270709
0.265228
0.259657
0.253975
0.248221
0.242708
0.23752
0.232843
0.228511
0.223644
0.218003
0.21142
0.204411
0.199181
0.195863
0.193095
0.189233
0.181579
0.171812
0.410591
0.404315
0.398014
0.391709
0.385532
0.379521
0.373555
0.367515
0.36143
0.355432
0.349694
0.344145
0.338486
0.332569
0.326508
0.320568
0.314837
0.309248
0.303653
0.297963
0.292285
0.286744
0.281339
0.276017
0.270697
0.265227
0.259667
0.253997
0.248255
0.242736
0.237523
0.232831
0.228507
0.223673
0.218053
0.211436
0.204379
0.199116
0.195778
0.193014
0.189056
0.181509
0.171812
0.410575
0.404296
0.398012
0.391729
0.385563
0.379542
0.373565
0.367515
0.361421
0.355415
0.349659
0.344096
0.338441
0.33254
0.3265
0.320575
0.314856
0.309276
0.303684
0.297987
0.292299
0.286743
0.281324
0.275996
0.270681
0.265242
0.25972
0.25406
0.24828
0.242685
0.237441
0.23279
0.228538
0.22377
0.218118
0.211391
0.204279
0.198986
0.195706
0.193041
0.189023
0.181391
0.171676
0.410577
0.404286
0.397999
0.391727
0.385577
0.379559
0.373576
0.367515
0.361415
0.355416
0.349669
0.344109
0.338454
0.332538
0.326476
0.320545
0.314845
0.309297
0.303724
0.298017
0.292302
0.286719
0.281287
0.275955
0.270643
0.265224
0.259732
0.254091
0.248313
0.242696
0.237434
0.232791
0.228562
0.223826
0.218156
0.211366
0.204205
0.198894
0.195665
0.193052
0.188973
0.181346
0.171631
0.41055
0.404252
0.397987
0.391746
0.385611
0.379578
0.373574
0.367504
0.361417
0.355431
0.349669
0.344079
0.338414
0.332511
0.326468
0.320552
0.314861
0.309318
0.303745
0.298027
0.292298
0.286708
0.281276
0.275946
0.270635
0.265226
0.259756
0.254138
0.248356
0.242701
0.237391
0.232739
0.228545
0.223851
0.218193
0.211364
0.204152
0.198835
0.195638
0.193032
0.188889
0.181258
0.171611
0.410504
0.404219
0.397981
0.391768
0.385637
0.379589
0.37357
0.367492
0.361408
0.355438
0.349687
0.344097
0.338421
0.332498
0.326439
0.320523
0.314851
0.309335
0.303784
0.298062
0.29231
0.286693
0.281244
0.275919
0.270623
0.265222
0.259746
0.254124
0.24836
0.242731
0.237433
0.232769
0.228548
0.223836
0.218187
0.211361
0.204136
0.198812
0.195607
0.192992
0.188816
0.18117
0.17157
0.410535
0.404228
0.397967
0.391741
0.385615
0.379583
0.373586
0.367518
0.361426
0.355441
0.349678
0.34408
0.338401
0.332487
0.326442
0.320536
0.314861
0.309332
0.303774
0.298053
0.292305
0.286693
0.281244
0.275922
0.270622
0.265208
0.259729
0.25413
0.248407
0.242794
0.237465
0.232737
0.228468
0.223767
0.218177
0.211406
0.204196
0.198836
0.195572
0.192916
0.188727
0.181146
0.171568
0.410505
0.404193
0.397932
0.391718
0.385607
0.379591
0.373605
0.367534
0.361439
0.355456
0.349698
0.344096
0.338399
0.332466
0.326413
0.320514
0.314857
0.309348
0.303803
0.298078
0.292309
0.286672
0.281218
0.275916
0.270637
0.265215
0.259705
0.254094
0.248398
0.242831
0.237533
0.232785
0.228467
0.223742
0.218147
0.211385
0.204191
0.19883
0.195575
0.192944
0.188734
0.18124
0.171537
0.410552
0.404219
0.397916
0.391671
0.385557
0.379566
0.373615
0.36756
0.361458
0.355461
0.349689
0.344073
0.338372
0.332454
0.32643
0.32055
0.314884
0.309346
0.303781
0.29806
0.292307
0.286678
0.281222
0.275918
0.270636
0.265202
0.259685
0.254092
0.248433
0.242894
0.237587
0.232779
0.228392
0.22365
0.218103
0.211414
0.204251
0.198856
0.195532
0.192881
0.188807
0.181437
0.171519
0.410533
0.404196
0.397888
0.391644
0.385537
0.37956
0.373625
0.367579
0.361477
0.355483
0.349717
0.344097
0.338378
0.332437
0.3264
0.320528
0.314878
0.30935
0.30379
0.298068
0.292307
0.286673
0.281219
0.275929
0.270662
0.265211
0.259661
0.254058
0.248425
0.242935
0.237651
0.232817
0.228385
0.223603
0.218066
0.211405
0.204231
0.198847
0.195512
0.192825
0.189118
0.181709
0.171393
0.410543
0.404208
0.397901
0.391642
0.385516
0.379529
0.373606
0.367585
0.361505
0.355505
0.349712
0.344066
0.33835
0.332432
0.326421
0.320564
0.314901
0.309344
0.303765
0.298039
0.292287
0.286672
0.281225
0.275937
0.270679
0.265217
0.259655
0.254052
0.248428
0.242967
0.237688
0.232832
0.228368
0.223536
0.21801
0.21139
0.204205
0.198858
0.195495
0.192634
0.189252
0.182229
0.171338
0.41049
0.404199
0.397942
0.391692
0.385534
0.379509
0.373565
0.367556
0.361509
0.355546
0.349775
0.344116
0.338363
0.332406
0.326382
0.32054
0.314893
0.309338
0.303759
0.298037
0.292289
0.286678
0.281232
0.275948
0.2707
0.265228
0.259643
0.25403
0.248421
0.242996
0.237726
0.232847
0.22835
0.223485
0.217984
0.211403
0.204194
0.19885
0.19546
0.19266
0.189325
0.181962
0.171893
0.410492
0.404193
0.397941
0.391699
0.385544
0.379518
0.373568
0.367556
0.361505
0.355536
0.349758
0.34409
0.338343
0.332413
0.326416
0.320582
0.314911
0.309323
0.303725
0.297999
0.292264
0.286678
0.281253
0.275973
0.270721
0.265225
0.259609
0.253997
0.248418
0.243032
0.237778
0.232869
0.228324
0.223421
0.217921
0.211377
0.204197
0.198874
0.195493
0.192699
0.189126
0.181857
0.172564
0.410462
0.404205
0.397988
0.39174
0.385545
0.379484
0.373524
0.367538
0.361528
0.355591
0.349825
0.34414
0.338359
0.332388
0.326359
0.320524
0.314881
0.30933
0.303749
0.298016
0.292265
0.286674
0.28126
0.275986
0.270736
0.265237
0.259606
0.253986
0.248403
0.243013
0.237773
0.232877
0.228334
0.223429
0.217909
0.211353
0.20418
0.198853
0.195483
0.19268
0.188993
0.181888
0.172983
0.410462
0.4042
0.397987
0.391752
0.385571
0.379512
0.37353
0.367525
0.361507
0.355572
0.349815
0.34414
0.338373
0.332416
0.326381
0.320525
0.314866
0.309308
0.303722
0.297989
0.292247
0.286683
0.281308
0.276038
0.270749
0.265197
0.259531
0.253937
0.24842
0.243069
0.237822
0.232882
0.228293
0.223381
0.217868
0.21133
0.204197
0.19887
0.195496
0.192682
0.188956
0.181889
0.173182
0.410469
0.404227
0.398014
0.391757
0.385551
0.379476
0.373491
0.367505
0.361514
0.355608
0.34987
0.344185
0.338391
0.332404
0.326346
0.32049
0.31485
0.309318
0.303746
0.298011
0.292255
0.286687
0.28132
0.276046
0.270746
0.265189
0.25952
0.25393
0.248407
0.243037
0.237789
0.23288
0.22833
0.223415
0.217862
0.211283
0.204136
0.198863
0.195549
0.192733
0.188998
0.18195
0.173107
0.410479
0.404224
0.398007
0.391759
0.385569
0.3795
0.373507
0.367507
0.3615
0.355593
0.349863
0.344185
0.338404
0.332421
0.326351
0.32048
0.314831
0.30929
0.303709
0.297981
0.292255
0.286732
0.281397
0.276102
0.270736
0.26512
0.259444
0.253901
0.248434
0.243084
0.237808
0.232868