/*--------------------------------*- C++ -*----------------------------------*\
  =========                 |
  \\      /  F ield         | OpenFOAM: The Open Source CFD Toolbox
   \\    /   O peration     | Website:  https://openfoam.org
    \\  /    A nd           | Version:  9
     \\/     M anipulation  |
\*---------------------------------------------------------------------------*/
FoamFile
{
    format      ascii;
    class       surfaceScalarField;
    location    "1200";
    object      phi;
}
// * * * * * * * * * * * * * * * * * * * * * * * * * * * * * * * * * * * * * //

dimensions      [0 3 -1 0 0 0 0];

internalField   nonuniform List<scalar> 
240440
(
4.87939e-05
-4.37139e-10
-4.57614e-08
4.88396e-05
-5.94656e-10
-4.57221e-08
4.88856e-05
-6.26168e-10
-4.57566e-08
4.89316e-05
-5.57898e-10
-4.59116e-08
4.89779e-05
-4.54943e-10
-4.61705e-08
4.90245e-05
-3.89629e-10
-4.6572e-08
4.90714e-05
-3.22213e-10
-4.6982e-08
4.91185e-05
-1.68692e-10
-4.72253e-08
4.91655e-05
1.80788e-10
-4.71933e-08
4.92126e-05
6.16089e-10
-4.69836e-08
4.92598e-05
8.7624e-10
-4.70205e-08
4.93074e-05
9.29392e-10
-4.73439e-08
4.9355e-05
8.22222e-10
-4.75453e-08
4.94024e-05
6.52419e-10
-4.74812e-08
4.94495e-05
4.56369e-10
-4.72052e-08
4.94965e-05
1.59928e-10
-4.69604e-08
4.95436e-05
-1.82497e-10
-4.70412e-08
4.95909e-05
-4.11476e-10
-4.72769e-08
4.96383e-05
-4.95362e-10
-4.72927e-08
4.96854e-05
-4.13139e-10
-4.71485e-08
4.97325e-05
-1.42697e-10
-4.71737e-08
4.97799e-05
1.11896e-10
-4.73755e-08
4.98276e-05
1.42292e-10
-4.77841e-08
4.98756e-05
-8.11559e-11
-4.81967e-08
4.99237e-05
-3.76386e-10
-4.82597e-08
4.99714e-05
-5.70014e-10
-4.80636e-08
5.00186e-05
-5.72881e-10
-4.76239e-08
5.00655e-05
-4.22029e-10
-4.70482e-08
5.01121e-05
-1.55852e-10
-4.66053e-08
5.01589e-05
8.95068e-11
-4.64061e-08
5.02062e-05
1.35492e-10
-4.66978e-08
5.02541e-05
4.15136e-11
-4.73468e-08
5.03024e-05
-1.29423e-10
-4.79428e-08
5.03502e-05
-1.49598e-10
-4.84326e-08
5.03971e-05
1.50961e-10
-4.79512e-08
5.04429e-05
6.28703e-10
-4.64654e-08
5.04879e-05
9.05341e-10
-4.50628e-08
5.05343e-05
8.40672e-10
-4.43016e-08
5.05827e-05
2.72794e-10
-4.58841e-08
5.06325e-05
-1.3848e-10
-4.92515e-08
5.06821e-05
8.47278e-11
-5.03182e-08
5.07283e-05
2.18447e-10
-4.79563e-08
7.80837e-10
-4.36464e-08
4.87942e-05
-2.98516e-10
-4.58698e-08
4.884e-05
-3.54646e-10
-4.60378e-08
4.88858e-05
-5.05948e-10
-4.6003e-08
4.89318e-05
-6.44716e-10
-4.58879e-08
4.8978e-05
-6.74401e-10
-4.59786e-08
4.90246e-05
-5.43489e-10
-4.64016e-08
4.90715e-05
-2.4379e-10
-4.69696e-08
4.91186e-05
1.3595e-10
-4.73325e-08
4.91656e-05
4.56545e-10
-4.72928e-08
4.92126e-05
6.56083e-10
-4.7011e-08
4.92598e-05
7.9093e-10
-4.70463e-08
4.93074e-05
8.75933e-10
-4.74627e-08
4.93551e-05
8.56988e-10
-4.77233e-08
4.94025e-05
7.27832e-10
-4.762e-08
4.94496e-05
5.12198e-10
-4.72431e-08
4.94966e-05
1.54498e-10
-4.69274e-08
4.95437e-05
-2.79418e-10
-4.69798e-08
4.95911e-05
-5.45963e-10
-4.72295e-08
4.96384e-05
-6.13124e-10
-4.72697e-08
4.96856e-05
-5.10888e-10
-4.712e-08
4.97326e-05
-2.34186e-10
-4.70668e-08
4.978e-05
7.51299e-11
-4.72174e-08
4.98277e-05
2.15595e-10
-4.76803e-08
4.98757e-05
1.63217e-10
-4.82025e-08
4.99238e-05
-3.83642e-11
-4.83289e-08
4.99715e-05
-3.82548e-10
-4.80268e-08
5.00188e-05
-6.54479e-10
-4.73972e-08
5.00658e-05
-7.45693e-10
-4.6788e-08
5.01125e-05
-4.37934e-10
-4.66128e-08
5.01593e-05
1.53208e-10
-4.6796e-08
5.02065e-05
4.3559e-10
-4.7251e-08
5.02543e-05
2.88618e-10
-4.76696e-08
5.03025e-05
-1.61562e-10
-4.78399e-08
5.03503e-05
-4.46904e-10
-4.8028e-08
5.03974e-05
-6.58484e-11
-4.75689e-08
5.04432e-05
6.86251e-10
-4.63847e-08
5.04881e-05
1.1265e-09
-4.53116e-08
5.05343e-05
1.08199e-09
-4.46848e-08
5.05826e-05
1.87688e-10
-4.61937e-08
5.06325e-05
-4.52131e-10
-4.92236e-08
5.06821e-05
-1.54075e-10
-4.99436e-08
5.07287e-05
9.03937e-10
-4.76626e-08
1.19228e-09
-4.37488e-08
4.87945e-05
-1.54703e-10
-4.58294e-08
4.88402e-05
-1.48547e-10
-4.59678e-08
4.88861e-05
-3.00279e-10
-4.60788e-08
4.8932e-05
-4.9431e-10
-4.61197e-08
4.89782e-05
-5.76758e-10
-4.6271e-08
4.90248e-05
-4.73676e-10
-4.65817e-08
4.90716e-05
-1.52173e-10
-4.69353e-08
4.91186e-05
1.92764e-10
-4.70776e-08
4.91657e-05
3.97696e-10
-4.69953e-08
4.92128e-05
4.85593e-10
-4.68378e-08
4.92601e-05
5.51893e-10
-4.69382e-08
4.93077e-05
5.81628e-10
-4.72801e-08
4.93554e-05
5.32638e-10
-4.74352e-08
4.94029e-05
4.50636e-10
-4.73373e-08
4.945e-05
3.72921e-10
-4.70954e-08
4.94971e-05
1.80769e-10
-4.69946e-08
4.95442e-05
-1.73101e-10
-4.71993e-08
4.95916e-05
-4.63484e-10
-4.74643e-08
4.9639e-05
-5.87584e-10
-4.74396e-08
4.96861e-05
-4.71745e-10
-4.72403e-08
4.97331e-05
-1.41775e-10
-4.71716e-08
4.97804e-05
2.01886e-10
-4.73088e-08
4.98281e-05
3.67486e-10
-4.77283e-08
4.98761e-05
3.58429e-10
-4.81538e-08
4.99241e-05
1.80162e-10
-4.82456e-08
4.99719e-05
-1.85857e-10
-4.80548e-08
5.00193e-05
-4.87392e-10
-4.76522e-08
5.00662e-05
-5.84344e-10
-4.72542e-08
5.01128e-05
-4.07441e-10
-4.68793e-08
5.01596e-05
-1.20692e-12
-4.65404e-08
5.02068e-05
1.95996e-10
-4.66641e-08
5.02547e-05
5.8741e-11
-4.72126e-08
5.03029e-05
-2.05553e-10
-4.79359e-08
5.03508e-05
-3.02288e-10
-4.85082e-08
5.03977e-05
7.81366e-11
-4.79564e-08
5.04433e-05
7.20795e-10
-4.62895e-08
5.04881e-05
1.03721e-09
-4.47041e-08
5.05344e-05
8.10316e-10
-4.41174e-08
5.05828e-05
-6.78686e-12
-4.61201e-08
5.06328e-05
-4.242e-10
-4.95098e-08
5.06823e-05
-9.62228e-11
-5.03584e-08
5.07286e-05
6.39277e-10
-4.78279e-08
1.21453e-09
-4.34299e-08
4.87945e-05
7.07027e-11
-4.58974e-08
4.88402e-05
1.17872e-10
-4.5997e-08
4.8886e-05
-1.7757e-10
-4.59901e-08
4.89321e-05
-4.97469e-10
-4.60081e-08
4.89783e-05
-6.08842e-10
-4.62184e-08
4.90249e-05
-4.19081e-10
-4.66472e-08
4.90719e-05
-1.45118e-11
-4.70484e-08
4.91189e-05
2.53721e-10
-4.71399e-08
4.9166e-05
2.7158e-10
-4.69728e-08
4.92131e-05
1.98861e-10
-4.67428e-08
4.92604e-05
2.63247e-10
-4.68989e-08
4.93081e-05
4.33621e-10
-4.74182e-08
4.93558e-05
5.54772e-10
-4.77462e-08
4.94032e-05
5.32352e-10
-4.76403e-08
4.94502e-05
3.79155e-10
-4.71936e-08
4.94973e-05
8.60928e-11
-4.68631e-08
4.95445e-05
-2.57849e-10
-4.70424e-08
4.9592e-05
-4.64041e-10
-4.74459e-08
4.96394e-05
-5.06373e-10
-4.75515e-08
4.96865e-05
-3.43466e-10
-4.73482e-08
4.97335e-05
-1.18457e-11
-4.71869e-08
4.97807e-05
2.59592e-10
-4.72059e-08
4.98284e-05
3.39153e-10
-4.75322e-08
4.98764e-05
2.93621e-10
-4.7902e-08
4.99245e-05
1.63786e-10
-4.80254e-08
4.99722e-05
-5.97047e-11
-4.79688e-08
5.00196e-05
-2.98207e-10
-4.7656e-08
5.00665e-05
-4.71522e-10
-4.7223e-08
5.01132e-05
-4.95624e-10
-4.67789e-08
5.01599e-05
-2.15577e-10
-4.64822e-08
5.02071e-05
1.443e-10
-4.68134e-08
5.02549e-05
2.92089e-10
-4.75914e-08
5.03032e-05
1.66106e-10
-4.83157e-08
5.0351e-05
-2.42051e-11
-4.86785e-08
5.0398e-05
-1.22572e-11
-4.77916e-08
5.04436e-05
3.34302e-10
-4.59059e-08
5.04883e-05
6.33258e-10
-4.43157e-08
5.05345e-05
5.3279e-10
-4.39739e-08
5.0583e-05
8.68247e-11
-4.6333e-08
5.0633e-05
-1.32835e-10
-4.98143e-08
5.06824e-05
3.1444e-10
-5.06951e-08
5.07291e-05
8.78465e-10
-4.78035e-08
1.02704e-09
-4.34319e-08
4.87942e-05
6.94039e-11
-4.56829e-08
4.884e-05
8.4204e-11
-4.57219e-08
4.88859e-05
-1.81582e-10
-4.58863e-08
4.89319e-05
-4.29918e-10
-4.61299e-08
4.89782e-05
-4.77688e-10
-4.64058e-08
4.90248e-05
-3.10379e-10
-4.66953e-08
4.90718e-05
-2.57002e-11
-4.68903e-08
4.91188e-05
1.7795e-10
-4.7002e-08
4.91659e-05
2.61237e-10
-4.70938e-08
4.9213e-05
2.72939e-10
-4.71118e-08
4.92603e-05
2.8312e-10
-4.71934e-08
4.93079e-05
2.95536e-10
-4.73976e-08
4.93556e-05
3.05346e-10
-4.74635e-08
4.9403e-05
3.06424e-10
-4.73678e-08
4.94502e-05
2.52214e-10
-4.71192e-08
4.94973e-05
7.26626e-11
-4.69878e-08
4.95445e-05
-1.78157e-10
-4.72311e-08
4.9592e-05
-3.56356e-10
-4.7579e-08
4.96394e-05
-4.55995e-10
-4.75568e-08
4.96866e-05
-4.17078e-10
-4.72005e-08
4.97336e-05
-1.74003e-10
-4.69551e-08
4.97809e-05
1.32117e-10
-4.70495e-08
4.98286e-05
3.18171e-10
-4.75356e-08
4.98766e-05
3.42609e-10
-4.79992e-08
4.99247e-05
2.5123e-10
-4.81073e-08
4.99724e-05
1.17016e-10
-4.79953e-08
5.00197e-05
-6.31754e-12
-4.77277e-08
5.00666e-05
-1.49807e-10
-4.74058e-08
5.01132e-05
-2.70769e-10
-4.70461e-08
5.01599e-05
-2.61798e-10
-4.65862e-08
5.0207e-05
-1.29979e-10
-4.6555e-08
5.02548e-05
1.00134e-10
-4.71412e-08
5.03031e-05
2.09141e-10
-4.79685e-08
5.0351e-05
1.61866e-10
-4.86436e-08
5.0398e-05
-4.79649e-11
-4.79325e-08
5.04437e-05
-7.16145e-11
-4.5944e-08
5.04884e-05
3.38042e-11
-4.41596e-08
5.05346e-05
2.26443e-10
-4.38935e-08
5.0583e-05
3.51709e-10
-4.6431e-08
5.06331e-05
4.09677e-10
-5.01189e-08
5.06823e-05
6.44295e-10
-5.0761e-08
5.0729e-05
8.30216e-10
-4.75815e-08
7.11792e-10
-4.31271e-08
4.87942e-05
-2.63762e-10
-4.52822e-08
4.88399e-05
-4.74392e-11
-4.55684e-08
4.88858e-05
6.16633e-11
-4.61282e-08
4.89318e-05
6.74935e-11
-4.65402e-08
4.89781e-05
-4.767e-12
-4.67193e-08
4.90247e-05
-8.3201e-11
-4.67741e-08
4.90715e-05
-1.23566e-10
-4.67693e-08
4.91186e-05
-1.10671e-10
-4.6774e-08
4.91657e-05
2.25859e-12
-4.68556e-08
4.92128e-05
1.27734e-10
-4.69183e-08
4.92601e-05
2.00161e-10
-4.71149e-08
4.93077e-05
2.41529e-10
-4.74763e-08
4.93554e-05
2.79644e-10
-4.76471e-08
4.94028e-05
2.59307e-10
-4.74964e-08
4.94499e-05
1.04179e-10
-4.70813e-08
4.94971e-05
-1.31778e-10
-4.68286e-08
4.95444e-05
-3.25383e-10
-4.70781e-08
4.95919e-05
-3.70341e-10
-4.75472e-08
4.96395e-05
-3.34364e-10
-4.76945e-08
4.96866e-05
-2.44505e-10
-4.74639e-08
4.97336e-05
-6.35164e-11
-4.71918e-08
4.97808e-05
1.25032e-10
-4.71111e-08
4.98284e-05
2.05489e-10
-4.74024e-08
4.98765e-05
1.98359e-10
-4.77968e-08
4.99245e-05
2.11008e-10
-4.79913e-08
4.99723e-05
2.8e-10
-4.79935e-08
5.00196e-05
2.96058e-10
-4.77312e-08
5.00665e-05
4.96963e-11
-4.72732e-08
5.01131e-05
-3.91885e-10
-4.67352e-08
5.01599e-05
-6.04116e-10
-4.63519e-08
5.0207e-05
-4.30031e-10
-4.65751e-08
5.02548e-05
1.37265e-10
-4.73659e-08
5.0303e-05
5.18072e-10
-4.81945e-08
5.03509e-05
4.88415e-10
-4.87422e-08
5.0398e-05
-4.28038e-11
-4.79593e-08
5.04436e-05
-4.40598e-10
-4.5996e-08
5.04884e-05
-5.39576e-10
-4.42204e-08
5.05345e-05
-1.54823e-10
-4.38433e-08
5.05829e-05
4.37357e-10
-4.63031e-08
5.0633e-05
8.26753e-10
-5.01253e-08
5.06823e-05
1.03988e-09
-5.09613e-08
5.07289e-05
8.39979e-10
-4.79792e-08
4.25143e-10
-4.3105e-08
4.87945e-05
8.11525e-13
-4.58886e-08
4.88401e-05
3.49266e-10
-4.60339e-08
4.88859e-05
4.92987e-10
-4.62348e-08
4.89319e-05
4.48574e-10
-4.63857e-08
4.89782e-05
2.33174e-10
-4.64477e-08
4.90248e-05
-5.16543e-11
-4.65555e-08
4.90716e-05
-2.30357e-10
-4.67486e-08
4.91186e-05
-2.35468e-10
-4.69135e-08
4.91656e-05
-9.36415e-11
-4.69731e-08
4.92127e-05
5.45146e-11
-4.69384e-08
4.926e-05
1.29325e-10
-4.70894e-08
4.93076e-05
1.55948e-10
-4.74256e-08
4.93552e-05
1.72532e-10
-4.75531e-08
4.94026e-05
1.42763e-10
-4.74047e-08
4.94497e-05
-3.30115e-11
-4.7066e-08
4.94968e-05
-2.14134e-10
-4.69136e-08
4.95441e-05
-3.1652e-10
-4.7187e-08
4.95916e-05
-3.43811e-10
-4.75499e-08
4.96391e-05
-3.32677e-10
-4.75662e-08
4.96863e-05
-2.67392e-10
-4.73038e-08
4.97334e-05
-7.01435e-11
-4.7124e-08
4.97806e-05
1.75453e-10
-4.71925e-08
4.98282e-05
3.11658e-10
-4.7608e-08
4.98762e-05
3.06671e-10
-4.8025e-08
4.99243e-05
2.53996e-10
-4.80727e-08
4.9972e-05
2.61638e-10
-4.78335e-08
5.00194e-05
2.98794e-10
-4.74701e-08
5.00663e-05
1.63498e-10
-4.7221e-08
5.0113e-05
-2.28372e-10
-4.70324e-08
5.01597e-05
-4.84369e-10
-4.67969e-08
5.02068e-05
-4.89604e-10
-4.6774e-08
5.02545e-05
-7.25131e-11
-4.70587e-08
5.03027e-05
2.62944e-10
-4.76068e-08
5.03506e-05
2.67223e-10
-4.82268e-08
5.03978e-05
-1.49579e-10
-4.79037e-08
5.04435e-05
-4.53727e-10
-4.64068e-08
5.04883e-05
-4.68925e-10
-4.48763e-08
5.05344e-05
-2.54499e-11
-4.43076e-08
5.05827e-05
5.55655e-10
-4.63083e-08
5.06327e-05
7.72656e-10
-4.96816e-08
5.06821e-05
8.17638e-10
-5.05156e-08
5.07288e-05
4.02652e-10
-4.80664e-08
3.61536e-10
-4.33777e-08
4.87941e-05
-9.02526e-11
-4.54794e-08
4.88397e-05
2.23976e-10
-4.55263e-08
4.88856e-05
4.91418e-10
-4.58559e-08
4.89317e-05
6.38064e-10
-4.62481e-08
4.8978e-05
5.96665e-10
-4.66113e-08
4.90245e-05
2.97731e-10
-4.68911e-08
4.90714e-05
-7.5812e-11
-4.70249e-08
4.91184e-05
-2.6024e-10
-4.70434e-08
4.91655e-05
-2.3665e-10
-4.69643e-08
4.92127e-05
-1.11126e-10
-4.68982e-08
4.926e-05
1.5841e-11
-4.70978e-08
4.93075e-05
1.32331e-10
-4.7497e-08
4.93551e-05
2.20607e-10
-4.76638e-08
4.94024e-05
1.63636e-10
-4.74672e-08
4.94495e-05
-1.21721e-10
-4.70462e-08
4.94966e-05
-3.83345e-10
-4.6798e-08
4.95438e-05
-4.36415e-10
-4.70487e-08
4.95913e-05
-2.82424e-10
-4.75606e-08
4.96388e-05
-8.18108e-11
-4.77731e-08
4.96859e-05
3.06801e-11
-4.75735e-08
4.97329e-05
8.02824e-11
-4.72326e-08
4.97801e-05
1.29658e-10
-4.70679e-08
4.98277e-05
1.65549e-10
-4.7367e-08
4.98758e-05
1.88169e-10
-4.78568e-08
4.9924e-05
2.30551e-10
-4.80872e-08
4.99718e-05
3.18566e-10
-4.79697e-08
5.00191e-05
3.42899e-10
-4.75359e-08
5.00661e-05
1.10109e-10
-4.70676e-08
5.01128e-05
-3.69196e-10
-4.67876e-08
5.01596e-05
-6.66396e-10
-4.66307e-08
5.02068e-05
-6.40907e-10
-4.68065e-08
5.02546e-05
-9.29451e-11
-4.72854e-08
5.03028e-05
4.14286e-10
-4.79234e-08
5.03506e-05
4.97301e-10
-4.85269e-08
5.03977e-05
-2.11519e-11
-4.80784e-08
5.04434e-05
-5.29448e-10
-4.63713e-08
5.04881e-05
-7.39643e-10
-4.45813e-08
5.05342e-05
-2.46363e-10
-4.40135e-08
5.05826e-05
6.80323e-10
-4.62883e-08
5.06327e-05
1.17577e-09
-5.00244e-08
5.06818e-05
1.00347e-09
-5.08343e-08
5.07287e-05
4.67723e-10
-4.79489e-08
-3.39427e-13
-4.29713e-08
4.87936e-05
2.19519e-10
-4.58855e-08
4.88393e-05
4.38049e-10
-4.58443e-08
4.88851e-05
6.22126e-10
-4.59631e-08
4.89311e-05
7.16447e-10
-4.6093e-08
4.89774e-05
6.5232e-10
-4.63174e-08
4.9024e-05
3.90126e-10
-4.67086e-08
4.9071e-05
-1.4988e-11
-4.70282e-08
4.91181e-05
-3.25184e-10
-4.71097e-08
4.91653e-05
-4.13391e-10
-4.70082e-08
4.92125e-05
-3.50251e-10
-4.68753e-08
4.92599e-05
-2.42294e-10
-4.70015e-08
4.93075e-05
-1.42937e-10
-4.7301e-08
4.93551e-05
-5.98104e-11
-4.73993e-08
4.94025e-05
-2.50095e-11
-4.73034e-08
4.94495e-05
-7.35255e-11
-4.7173e-08
4.94966e-05
-1.36843e-10
-4.71581e-08
4.95437e-05
-1.33267e-10
-4.73731e-08
4.95911e-05
-2.36496e-11
-4.76465e-08
4.96385e-05
8.71051e-11
-4.76251e-08
4.96857e-05
1.30465e-10
-4.73795e-08
4.97327e-05
1.25855e-10
-4.71768e-08
4.97799e-05
1.32852e-10
-4.71625e-08
4.98276e-05
1.3256e-10
-4.74867e-08
4.98756e-05
7.68515e-11
-4.78538e-08
4.99238e-05
2.28275e-11
-4.79224e-08
4.99717e-05
7.87622e-11
-4.77274e-08
5.00191e-05
1.6228e-10
-4.73812e-08
5.00661e-05
6.06788e-11
-4.71342e-08
5.01129e-05
-2.53302e-10
-4.70799e-08
5.01597e-05
-5.32161e-10
-4.69614e-08
5.02069e-05
-5.80263e-10
-4.69734e-08
5.02546e-05
-2.21658e-10
-4.71173e-08
5.03027e-05
1.67268e-10
-4.74974e-08
5.03505e-05
2.44099e-10
-4.80209e-08
5.03976e-05
-1.44672e-10
-4.78312e-08
5.04433e-05
-4.62091e-10
-4.65663e-08
5.04881e-05
-4.75519e-10
-4.51276e-08
5.05342e-05
-3.50087e-13
-4.44953e-08
5.05826e-05
7.9172e-10
-4.63386e-08
5.06324e-05
1.13629e-09
-4.96119e-08
5.06818e-05
2.58157e-10
-5.01727e-08
5.07287e-05
8.20643e-10
-4.77576e-08
5.26713e-11
-4.34418e-08
4.87934e-05
2.88483e-10
-4.56583e-08
4.88391e-05
2.21706e-10
-4.54707e-08
4.8885e-05
2.36792e-10
-4.54855e-08
4.89311e-05
3.68026e-10
-4.57267e-08
4.89775e-05
5.56964e-10
-4.62259e-08
4.90242e-05
5.68572e-10
-4.68518e-08
4.90712e-05
3.04151e-10
-4.73284e-08
4.91184e-05
-2.2702e-10
-4.73281e-08
4.91655e-05
-6.45224e-10
-4.70116e-08
4.92128e-05
-7.56566e-10
-4.67524e-08
4.92602e-05
-5.90638e-10
-4.69423e-08
4.93078e-05
-2.73946e-10
-4.74385e-08
4.93554e-05
3.30118e-11
-4.76986e-08
4.94026e-05
1.07983e-10
-4.752e-08
4.94497e-05
-3.27778e-12
-4.71351e-08
4.94967e-05
-1.35427e-10
-4.69147e-08
4.95439e-05
-1.08939e-10
-4.71242e-08
4.95913e-05
8.79517e-11
-4.75166e-08
4.96387e-05
2.74797e-10
-4.76313e-08
4.96858e-05
3.53276e-10
-4.74833e-08
4.97328e-05
2.95904e-10
-4.72947e-08
4.978e-05
1.73263e-10
-4.71921e-08
4.98277e-05
5.52224e-11
-4.74371e-08
4.98757e-05
-4.59473e-11
-4.78432e-08
4.99239e-05
-9.87996e-11
-4.80038e-08
4.99717e-05
-3.90949e-11
-4.78371e-08
5.00191e-05
1.32502e-11
-4.7378e-08
5.00661e-05
-7.3672e-11
-4.69985e-08
5.01129e-05
-2.93591e-10
-4.69238e-08
5.01598e-05
-5.01748e-10
-4.69332e-08
5.0207e-05
-5.00366e-10
-4.70813e-08
5.02547e-05
-2.31904e-10
-4.72422e-08
5.03026e-05
8.01819e-11
-4.75313e-08
5.03503e-05
1.72705e-10
-4.80192e-08
5.03974e-05
-6.97889e-11
-4.78956e-08
5.04433e-05
-2.82539e-10
-4.66786e-08
5.04882e-05
-2.8645e-10
-4.52311e-08
5.05343e-05
4.82856e-11
-4.45046e-08
5.05825e-05
7.30425e-10
-4.6339e-08
5.06322e-05
1.32678e-09
-4.99966e-08
5.06824e-05
-4.64733e-10
-5.0884e-08
5.07284e-05
8.15681e-10
-4.70211e-08
-5.39554e-11
-4.28904e-08
4.87936e-05
5.92923e-10
-4.58586e-08
4.88393e-05
2.92681e-10
-4.57145e-08
4.88851e-05
3.86426e-12
-4.56136e-08
4.89313e-05
-2.39491e-11
-4.56928e-08
4.89776e-05
2.25127e-10
-4.60021e-08
4.90243e-05
4.20598e-10
-4.65436e-08
4.90714e-05
3.85235e-10
-4.70941e-08
4.91186e-05
-4.25563e-11
-4.74044e-08
4.91658e-05
-5.14984e-10
-4.73562e-08
4.92129e-05
-7.53613e-10
-4.70918e-08
4.92602e-05
-8.09859e-10
-4.6968e-08
4.93077e-05
-6.51421e-10
-4.71094e-08
4.93553e-05
-2.76043e-10
-4.7261e-08
4.94026e-05
3.53492e-11
-4.73283e-08
4.94496e-05
1.6703e-10
-4.72665e-08
4.94966e-05
1.73517e-10
-4.72309e-08
4.95438e-05
2.17954e-10
-4.74142e-08
4.95912e-05
3.36049e-10
-4.76408e-08
4.96386e-05
4.04137e-10
-4.75713e-08
4.96858e-05
3.74657e-10
-4.73211e-08
4.97329e-05
2.44355e-10
-4.7148e-08
4.97802e-05
8.68631e-11
-4.71371e-08
4.98278e-05
-2.64294e-11
-4.74914e-08
4.98758e-05
-9.76987e-11
-4.79333e-08
4.9924e-05
-1.5274e-10
-4.8038e-08
4.99718e-05
-9.63897e-11
-4.78657e-08
5.00192e-05
-4.22304e-12
-4.74546e-08
5.00662e-05
-4.98285e-11
-4.71031e-08
5.0113e-05
-2.67601e-10
-4.6994e-08
5.01599e-05
-4.84175e-10
-4.69195e-08
5.0207e-05
-5.05348e-10
-4.70077e-08
5.02546e-05
-1.9725e-10
-4.72482e-08
5.03024e-05
1.44353e-10
-4.75314e-08
5.03501e-05
2.21373e-10
-4.80139e-08
5.03972e-05
-7.95774e-11
-4.77397e-08
5.04432e-05
-3.41512e-10
-4.64558e-08
5.04883e-05
-3.66791e-10
-4.52196e-08
5.05344e-05
1.05729e-10
-4.46685e-08
5.05825e-05
7.66826e-10
-4.65438e-08
5.0634e-05
8.5163e-10
-5.12851e-08
5.06848e-05
1.32502e-09
-5.28894e-08
5.07265e-05
5.69841e-11
-4.48245e-08
-1.70882e-09
-4.16465e-08
4.87939e-05
4.41388e-10
-4.54133e-08
4.88396e-05
1.67671e-10
-4.558e-08
4.88855e-05
2.46099e-12
-4.59311e-08
4.89316e-05
6.17274e-11
-4.6181e-08
4.89779e-05
2.3351e-10
-4.62898e-08
4.90245e-05
3.06608e-10
-4.64783e-08
4.90715e-05
2.04562e-10
-4.6753e-08
4.91186e-05
-1.73921e-10
-4.70479e-08
4.91659e-05
-5.62508e-10
-4.71696e-08
4.9213e-05
-7.15037e-10
-4.71374e-08
4.92603e-05
-6.71898e-10
-4.73124e-08
4.93077e-05
-4.14773e-10
-4.76543e-08
4.93551e-05
-4.77455e-11
-4.76744e-08
4.94023e-05
1.70285e-10
-4.7417e-08
4.94493e-05
1.83838e-10
-4.70807e-08
4.94964e-05
1.43269e-10
-4.69399e-08
4.95437e-05
1.87089e-10
-4.71499e-08
4.95911e-05
2.90172e-10
-4.74436e-08
4.96386e-05
3.76141e-10
-4.74651e-08
4.96858e-05
3.94957e-10
-4.73364e-08
4.9733e-05
2.90755e-10
-4.72558e-08
4.97803e-05
9.15661e-11
-4.72305e-08
4.98279e-05
-9.95444e-11
-4.75063e-08
4.98759e-05
-1.80131e-10
-4.79251e-08
4.9924e-05
-1.58581e-10
-4.81073e-08
4.99718e-05
4.6756e-12
-4.80303e-08
5.00192e-05
1.76751e-10
-4.76158e-08
5.00662e-05
1.32461e-10
-4.7184e-08
5.0113e-05
-1.36737e-10
-4.70445e-08
5.01599e-05
-4.19841e-10
-4.69802e-08
5.02071e-05
-5.20151e-10
-4.70458e-08
5.02546e-05
-2.8996e-10
-4.71508e-08
5.03023e-05
4.35134e-11
-4.73304e-08
5.03498e-05
2.27968e-10
-4.78615e-08
5.0397e-05
1.20136e-10
-4.77951e-08
5.04432e-05
-9.57702e-11
-4.67107e-08
5.04883e-05
-2.2047e-10
-4.55829e-08
5.05345e-05
-5.11399e-11
-4.46727e-08
5.05824e-05
2.3709e-10
-4.61942e-08
5.0632e-05
4.88733e-10
-4.99814e-08
5.06832e-05
9.44191e-10
-5.13463e-08
5.07282e-05
-2.9718e-10
-4.7466e-08
-1.4965e-09
-4.23386e-08
4.87937e-05
5.98858e-10
-4.57029e-08
4.88394e-05
2.60756e-10
-4.57348e-08
4.88852e-05
-6.03101e-12
-4.58533e-08
4.89313e-05
-1.69625e-11
-4.598e-08
4.89776e-05
1.77522e-10
-4.62062e-08
4.90242e-05
3.35959e-10
-4.66101e-08
4.90712e-05
3.26101e-10
-4.70349e-08
4.91183e-05
-7.12615e-11
-4.72345e-08
4.91654e-05
-5.81691e-10
-4.71429e-08
4.92125e-05
-8.51009e-10
-4.69188e-08
4.92598e-05
-9.05874e-10
-4.69126e-08
4.93072e-05
-7.20103e-10
-4.7141e-08
4.93547e-05
-3.09096e-10
-4.72646e-08
4.9402e-05
1.79944e-10
-4.73746e-08
4.94491e-05
5.16231e-10
-4.74532e-08
4.94962e-05
6.37239e-10
-4.74969e-08
4.95434e-05
5.58655e-10
-4.75597e-08
4.95908e-05
3.38737e-10
-4.75052e-08
4.96383e-05
1.5347e-10
-4.72426e-08
4.96856e-05
1.0451e-10
-4.7046e-08
4.97328e-05
8.3886e-11
-4.70747e-08
4.97801e-05
-3.17495e-11
-4.71835e-08
4.98278e-05
-1.78341e-10
-4.75592e-08
4.98759e-05
-1.96825e-10
-4.80228e-08
4.9924e-05
-2.86589e-11
-4.82305e-08
4.99718e-05
1.93395e-10
-4.80996e-08
5.00191e-05
2.88011e-10
-4.75424e-08
5.00661e-05
1.44236e-10
-4.70042e-08
5.01129e-05
-1.18959e-10
-4.6941e-08
5.01599e-05
-2.45995e-10
-4.71078e-08
5.0207e-05
-2.50565e-10
-4.73269e-08
5.02545e-05
-1.04619e-10
-4.74011e-08
5.03021e-05
3.27899e-11
-4.7337e-08
5.03496e-05
5.36709e-11
-4.76208e-08
5.03968e-05
-2.57236e-12
-4.7488e-08
5.0443e-05
-1.04878e-10
-4.64957e-08
5.04882e-05
-1.74945e-10
-4.5564e-08
5.05344e-05
-9.12251e-11
-4.4794e-08
5.05822e-05
3.95229e-11
-4.62675e-08
5.06315e-05
2.16103e-10
-4.95644e-08
5.06819e-05
3.2844e-10
-5.05311e-08
5.07279e-05
-3.92288e-10
-4.82097e-08
-1.03858e-09
-4.20382e-08
4.87936e-05
3.30229e-10
-4.53343e-08
4.88394e-05
1.89947e-10
-4.56895e-08
4.88854e-05
1.75679e-10
-4.61654e-08
4.89315e-05
2.42424e-10
-4.63735e-08
4.89777e-05
2.74705e-10
-4.63503e-08
4.90243e-05
2.38846e-10
-4.64296e-08
4.90712e-05
1.8437e-10
-4.67284e-08
4.91183e-05
-6.53567e-11
-4.71233e-08
4.91655e-05
-4.48177e-10
-4.73025e-08
4.92126e-05
-6.77101e-10
-4.72407e-08
4.92598e-05
-7.19505e-10
-4.7305e-08
4.93071e-05
-5.7943e-10
-4.74918e-08
4.93545e-05
-2.72383e-10
-4.74236e-08
4.94016e-05
1.09243e-10
-4.71776e-08
4.94486e-05
3.62092e-10
-4.69166e-08
4.94958e-05
4.54265e-10
-4.6845e-08
4.95431e-05
4.12205e-10
-4.71287e-08
4.95907e-05
2.45902e-10
-4.7476e-08
4.96382e-05
9.97118e-11
-4.74902e-08
4.96855e-05
5.0056e-11
-4.72983e-08
4.97327e-05
5.78134e-12
-4.71874e-08
4.97801e-05
-1.53733e-10
-4.71919e-08
4.98278e-05
-3.36121e-10
-4.75386e-08
4.98759e-05
-3.00719e-10
-4.80223e-08
4.99241e-05
4.92931e-11
-4.82542e-08
4.99719e-05
4.56828e-10
-4.81908e-08
5.00192e-05
6.89648e-10
-4.7787e-08
5.00661e-05
5.22629e-10
-4.72987e-08
5.01129e-05
4.57613e-11
-4.70386e-08
5.01598e-05
-2.8618e-10
-4.6909e-08
5.0207e-05
-3.70084e-10
-4.69864e-08
5.02545e-05
-1.65185e-10
-4.72141e-08
5.03022e-05
7.75865e-11
-4.74656e-08
5.03497e-05
1.74578e-10
-4.79237e-08
5.03968e-05
1.62412e-10
-4.77313e-08
5.0443e-05
-1.58032e-11
-4.65483e-08
5.04882e-05
-2.96642e-10
-4.53427e-08
5.05344e-05
-4.26691e-10
-4.45383e-08
5.05823e-05
-4.83836e-10
-4.606e-08
5.06317e-05
-3.05104e-10
-4.93998e-08
5.06816e-05
1.42463e-10
-5.0566e-08
5.07279e-05
1.95695e-10
-4.85886e-08
-3.71877e-10
-4.22128e-08
4.87932e-05
2.23645e-10
-4.54868e-08
4.8839e-05
7.95955e-11
-4.56856e-08
4.88851e-05
8.53863e-11
-4.59854e-08
4.89313e-05
1.81467e-10
-4.61896e-08
4.89778e-05
2.72722e-10
-4.64158e-08
4.90245e-05
3.23238e-10
-4.67341e-08
4.90714e-05
2.77707e-10
-4.70286e-08
4.91185e-05
3.11341e-11
-4.7198e-08
4.91656e-05
-3.45582e-10
-4.72069e-08
4.92127e-05
-6.34174e-10
-4.7064e-08
4.92598e-05
-7.52871e-10
-4.70583e-08
4.93072e-05
-6.57372e-10
-4.72716e-08
4.93546e-05
-3.2247e-10
-4.73676e-08
4.94017e-05
1.37183e-10
-4.73096e-08
4.94488e-05
4.38484e-10
-4.71539e-08
4.94958e-05
5.35068e-10
-4.7074e-08
4.95431e-05
4.39746e-10
-4.72269e-08
4.95907e-05
1.65475e-10
-4.74324e-08
4.96382e-05
-1.18006e-10
-4.73325e-08
4.96855e-05
-2.94349e-10
-4.70463e-08
4.97327e-05
-3.72786e-10
-4.69425e-08
4.97802e-05
-4.32227e-10
-4.71129e-08
4.9828e-05
-4.02318e-10
-4.76741e-08
4.98761e-05
-6.49916e-11
-4.83486e-08
4.99242e-05
4.49266e-10
-4.85259e-08
4.9972e-05
7.13418e-10
-4.80959e-08
5.00192e-05
7.04393e-10
-4.73633e-08
5.00661e-05
4.09574e-10
-4.68551e-08
5.01129e-05
7.03335e-11
-4.69584e-08
5.016e-05
2.77615e-11
-4.73085e-08
5.02071e-05
1.22937e-10
-4.75455e-08
5.02546e-05
1.16081e-10
-4.7461e-08
5.03022e-05
-2.81717e-11
-4.72975e-08
5.03497e-05
-1.22291e-10
-4.75202e-08
5.03968e-05
-7.54696e-11
-4.73885e-08
5.04429e-05
-1.5017e-11
-4.64733e-08
5.04881e-05
-1.6234e-10
-4.54204e-08
5.05343e-05
-5.01004e-10
-4.47194e-08
5.05823e-05
-7.7277e-10
-4.62287e-08
5.06317e-05
-7.49108e-10
-4.93761e-08
5.06817e-05
-3.06587e-10
-5.06064e-08
5.07279e-05
-4.3462e-11
-4.88646e-08
4.34141e-10
-4.22991e-08
4.8793e-05
1.07523e-10
-4.54823e-08
4.88388e-05
2.06226e-10
-4.59177e-08
4.88848e-05
2.79548e-10
-4.62395e-08
4.89311e-05
2.65923e-10
-4.63125e-08
4.89775e-05
1.18859e-10
-4.6252e-08
4.90242e-05
-3.45643e-11
-4.63124e-08
4.90712e-05
-1.39391e-10
-4.65721e-08
4.91184e-05
-2.52116e-10
-4.69156e-08
4.91656e-05
-3.81982e-10
-4.71887e-08
4.92128e-05
-4.73169e-10
-4.72952e-08
4.926e-05
-4.72297e-10
-4.74468e-08
4.93074e-05
-3.44972e-10
-4.76674e-08
4.93547e-05
-1.19238e-10
-4.75634e-08
4.94018e-05
1.33587e-10
-4.72033e-08
4.94487e-05
2.64757e-10
-4.68477e-08
4.94959e-05
2.80164e-10
-4.67301e-08
4.95432e-05
2.0929e-10
-4.70277e-08
4.95908e-05
7.26764e-11
-4.74802e-08
4.96383e-05
-6.85326e-11
-4.76028e-08
4.96856e-05
-2.02164e-10
-4.74295e-08
4.97328e-05
-3.27747e-10
-4.72815e-08
4.97802e-05
-4.86695e-10
-4.72705e-08
4.9828e-05
-5.36127e-10
-4.76004e-08
4.98761e-05
-1.47975e-10
-4.80851e-08
4.99242e-05
4.67643e-10
-4.81965e-08
4.9972e-05
8.47385e-10
-4.79672e-08
5.00192e-05
9.14747e-10
-4.75201e-08
5.00661e-05
5.86319e-10
-4.71041e-08
5.01129e-05
1.68884e-10
-4.70182e-08
5.01599e-05
2.26815e-11
-4.70234e-08
5.02072e-05
7.93946e-11
-4.70901e-08
5.02547e-05
1.05653e-10
-4.72598e-08
5.03024e-05
7.43603e-11
-4.75736e-08
5.03498e-05
1.17754e-10
-4.80627e-08
5.03969e-05
1.43854e-10
-4.77794e-08
5.04429e-05
5.02486e-11
-4.64665e-08
5.04881e-05
-2.60688e-10
-4.51928e-08
5.05344e-05
-7.85763e-10
-4.46057e-08
5.05824e-05
-1.03599e-09
-4.6438e-08
5.06319e-05
-9.12031e-10
-4.99e-08
5.0682e-05
-6.35941e-10
-5.11081e-08
5.07281e-05
8.83617e-12
-4.88389e-08
1.03056e-09
-4.22176e-08
4.87931e-05
-4.16034e-11
-4.54479e-08
4.88389e-05
2.03256e-10
-4.57898e-08
4.8885e-05
3.37735e-10
-4.61234e-08
4.89312e-05
2.7812e-10
-4.62711e-08
4.89777e-05
2.95933e-11
-4.63593e-08
4.90244e-05
-1.29474e-10
-4.6608e-08
4.90714e-05
-1.19821e-10
-4.70017e-08
4.91185e-05
-2.78201e-11
-4.73517e-08
4.91657e-05
-4.0656e-11
-4.74704e-08
4.92128e-05
-2.23703e-10
-4.73014e-08
4.926e-05
-3.7837e-10
-4.7213e-08
4.93073e-05
-3.18498e-10
-4.73818e-08
4.93546e-05
-1.24556e-10
-4.7371e-08
4.94018e-05
3.62668e-11
-4.71456e-08
4.94488e-05
8.26831e-11
-4.68919e-08
4.94959e-05
1.98195e-11
-4.67228e-08
4.95432e-05
-6.40835e-11
-4.69231e-08
4.95907e-05
-1.31363e-10
-4.73165e-08
4.96382e-05
-2.02499e-10
-4.7404e-08
4.96855e-05
-2.89344e-10
-4.72519e-08
4.97327e-05
-3.46978e-10
-4.72392e-08
4.97801e-05
-3.72749e-10
-4.74808e-08
4.98279e-05
-2.15084e-10
-4.80518e-08
4.98759e-05
2.91194e-10
-4.85387e-08
4.9924e-05
7.47001e-10
-4.83448e-08
4.99716e-05
8.61801e-10
-4.77419e-08
5.00188e-05
6.88207e-10
-4.70689e-08
5.00658e-05
3.34683e-10
-4.67721e-08
5.01128e-05
1.65091e-10
-4.70521e-08
5.01599e-05
2.70008e-10
-4.73332e-08
5.02071e-05
3.61658e-10
-4.74103e-08
5.02546e-05
2.07716e-10
-4.73197e-08
5.03022e-05
-1.04053e-11
-4.73142e-08
5.03497e-05
-1.12005e-11
-4.77307e-08
5.03969e-05
1.26879e-10
-4.75951e-08
5.04431e-05
1.05436e-10
-4.64873e-08
5.04883e-05
-2.74031e-10
-4.54429e-08
5.05345e-05
-8.70664e-10
-4.48711e-08
5.05824e-05
-1.20807e-09
-4.65474e-08
5.06318e-05
-1.13364e-09
-5.00466e-08
5.06819e-05
-1.07231e-09
-5.09221e-08
5.07283e-05
2.67868e-10
-4.81668e-08
1.06617e-09
-4.28511e-08
4.87931e-05
-2.60357e-10
-4.54584e-08
4.88389e-05
4.66084e-11
-4.56749e-08
4.8885e-05
2.65206e-10
-4.59901e-08
4.89313e-05
2.39441e-10
-4.61989e-08
4.89777e-05
-3.51546e-11
-4.63581e-08
4.90244e-05
-2.63302e-10
-4.65641e-08
4.90714e-05
-2.76612e-10
-4.68328e-08
4.91186e-05
-7.70836e-11
-4.70986e-08
4.91657e-05
9.93769e-11
-4.7316e-08
4.92129e-05
8.82422e-11
-4.74265e-08
4.92602e-05
-9.61471e-13
-4.75495e-08
4.93075e-05
-1.41733e-11
-4.76856e-08
4.93548e-05
1.13536e-11
-4.7497e-08
4.9402e-05
-2.8417e-11
-4.71351e-08
4.9449e-05
-1.42427e-10
-4.68047e-08
4.9496e-05
-2.48952e-10
-4.66883e-08
4.95433e-05
-2.37571e-10
-4.70259e-08
4.95908e-05
-6.74153e-11
-4.75655e-08
4.96383e-05
1.0168e-10
-4.77673e-08
4.96855e-05
9.70898e-11
-4.7621e-08
4.97326e-05
-8.16291e-11
-4.74348e-08
4.97799e-05
-2.95696e-10
-4.73947e-08
4.98277e-05
-2.7777e-10
-4.76804e-08
4.98758e-05
1.23256e-10
-4.80149e-08
4.99239e-05
5.82008e-10
-4.79461e-08
4.99716e-05
8.08354e-10
-4.76587e-08
5.00187e-05
7.64692e-10
-4.73414e-08
5.00657e-05
5.61491e-10
-4.72046e-08
5.01126e-05
4.09628e-10
-4.7261e-08
5.01598e-05
2.6404e-10
-4.70969e-08
5.02071e-05
6.21067e-11
-4.69196e-08
5.02546e-05
-1.3696e-10
-4.6986e-08
5.03022e-05
-1.35316e-10
-4.73513e-08
5.03496e-05
1.71307e-10
-4.80389e-08
5.03968e-05
4.62095e-10
-4.78443e-08
5.0443e-05
2.92539e-10
-4.65393e-08
5.04883e-05
-4.62383e-10
-4.53933e-08
5.05347e-05
-1.19208e-09
-4.48918e-08
5.05826e-05
-1.4971e-09
-4.67367e-08
5.06318e-05
-9.12645e-10
-5.06285e-08
5.06825e-05
-8.12854e-10
-5.16715e-08
5.0728e-05
4.28608e-10
-4.73901e-08
8.69516e-10
-4.2524e-08
4.87928e-05
-3.39977e-10
-4.55642e-08
4.88386e-05
-2.29598e-11
-4.57159e-08
4.88846e-05
2.00212e-10
-4.5972e-08
4.89309e-05
1.81795e-10
-4.61914e-08
4.89773e-05
-5.6723e-11
-4.64414e-08
4.90241e-05
-2.18064e-10
-4.67887e-08
4.90711e-05
-2.01517e-10
-4.707e-08
4.91182e-05
3.26509e-11
-4.72099e-08
4.91654e-05
2.18665e-10
-4.7244e-08
4.92125e-05
1.87942e-10
-4.71913e-08
4.92598e-05
7.65911e-11
-4.72698e-08
4.93071e-05
-3.71272e-12
-4.74459e-08
4.93545e-05
-8.15775e-11
-4.73284e-08
4.94017e-05
-2.07314e-10
-4.70744e-08
4.94488e-05
-3.32199e-10
-4.68837e-08
4.94958e-05
-3.86583e-10
-4.68464e-08
4.95431e-05
-3.31674e-10
-4.70997e-08
4.95906e-05
-1.36148e-10
-4.74345e-08
4.96381e-05
4.86565e-11
-4.74632e-08
4.96854e-05
1.19779e-10
-4.73253e-08
4.97325e-05
8.6902e-11
-4.73867e-08