/*--------------------------------*- C++ -*----------------------------------*\
  =========                 |
  \\      /  F ield         | OpenFOAM: The Open Source CFD Toolbox
   \\    /   O peration     | Website:  https://openfoam.org
    \\  /    A nd           | Version:  9
     \\/     M anipulation  |
\*---------------------------------------------------------------------------*/
FoamFile
{
    format      ascii;
    class       volVectorField;
    location    "1200";
    object      U;
}
// * * * * * * * * * * * * * * * * * * * * * * * * * * * * * * * * * * * * * //

dimensions      [0 1 -1 0 0 0 0];

internalField   nonuniform List<vector> 
82200
(
(4.87659 -0.000151593 2.8076e-05)
(4.88116 -0.000151067 2.92761e-05)
(4.88574 -0.000150527 2.56555e-05)
(4.89033 -0.000150305 2.03756e-05)
(4.89495 -0.000150883 1.76717e-05)
(4.8996 -0.000152369 2.00072e-05)
(4.90428 -0.000154151 2.24156e-05)
(4.90898 -0.000154946 1.92826e-05)
(4.91367 -0.000154499 -8.745e-07)
(4.91837 -0.000153259 -3.31641e-05)
(4.92309 -0.000153178 -5.14486e-05)
(4.92785 -0.000154703 -5.51459e-05)
(4.93262 -0.000155833 -4.84433e-05)
(4.93737 -0.000155367 -3.74389e-05)
(4.94207 -0.000153836 -2.50973e-05)
(4.94676 -0.000152685 -6.91083e-06)
(4.95147 -0.000153 1.23995e-05)
(4.95621 -0.000154134 2.20853e-05)
(4.96095 -0.000154152 2.44873e-05)
(4.96566 -0.000153119 1.94267e-05)
(4.97036 -0.000152623 5.61631e-06)
(4.97508 -0.000153061 -3.41525e-06)
(4.97984 -0.000154436 3.8423e-07)
(4.98464 -0.000156415 1.54412e-05)
(4.98945 -0.000157493 2.88352e-05)
(4.99425 -0.000157237 3.36984e-05)
(4.99899 -0.000155361 2.94362e-05)
(5.00369 -0.000152479 1.60314e-05)
(5.00835 -0.000150118 -1.00595e-06)
(5.01299 -0.000148257 -9.94436e-06)
(5.01768 -0.000148655 -8.24731e-06)
(5.02248 -0.000152304 1.67982e-06)
(5.02733 -0.000156328 1.20229e-05)
(5.03219 -0.000159788 8.6272e-06)
(5.03691 -0.00015869 -1.22084e-05)
(5.04143 -0.000150136 -3.38074e-05)
(5.04589 -0.000140596 -4.86709e-05)
(5.0504 -0.000135937 -4.07393e-05)
(5.05523 -0.000142684 -2.36254e-06)
(5.06043 -0.000161045 2.09819e-05)
(5.06548 -0.000170331 1.58622e-05)
(5.0701 -0.000157895 -1.89815e-05)
(5.07428 -0.000134252 -4.7019e-05)
(4.87663 -0.000151898 2.02331e-05)
(4.8812 -0.000152585 2.85824e-05)
(4.88577 -0.000151823 3.31783e-05)
(4.89035 -0.000150385 3.37854e-05)
(4.89496 -0.000149981 2.98775e-05)
(4.89961 -0.000151626 2.2594e-05)
(4.90429 -0.000154091 1.28542e-05)
(4.90899 -0.000155375 -9.74709e-07)
(4.91368 -0.000155024 -1.78751e-05)
(4.91838 -0.000153558 -3.1198e-05)
(4.92309 -0.000153462 -4.04191e-05)
(4.92785 -0.000155169 -4.44712e-05)
(4.93262 -0.000156455 -4.15762e-05)
(4.93737 -0.000155906 -3.4495e-05)
(4.94208 -0.000154066 -2.43659e-05)
(4.94677 -0.000152539 -8.41531e-06)
(4.95149 -0.000152646 9.48327e-06)
(4.95623 -0.000153795 2.18017e-05)
(4.96097 -0.000154023 2.521e-05)
(4.96568 -0.000152978 1.95723e-05)
(4.97037 -0.000152171 5.55672e-06)
(4.97509 -0.000152271 -6.89956e-06)
(4.97985 -0.000153999 -9.52507e-06)
(4.98465 -0.000156634 -2.37659e-06)
(4.98946 -0.0001579 1.22567e-05)
(4.99425 -0.000157031 2.72244e-05)
(4.99901 -0.000154195 3.46032e-05)
(5.00371 -0.000151068 3.25782e-05)
(5.00838 -0.0001499 1.55522e-05)
(5.01303 -0.000149976 -9.77365e-06)
(5.01772 -0.000151255 -1.83803e-05)
(5.0225 -0.000154027 -1.03552e-05)
(5.02734 -0.000156022 9.0439e-06)
(5.0322 -0.000158031 1.62828e-05)
(5.03693 -0.000156745 3.45381e-07)
(5.04146 -0.000149379 -3.25354e-05)
(5.04592 -0.000141489 -4.5698e-05)
(5.05041 -0.000137872 -3.4244e-05)
(5.05523 -0.000144089 -2.73439e-06)
(5.06042 -0.00016072 1.81246e-05)
(5.06548 -0.000168239 -1.10503e-05)
(5.07011 -0.00015705 -6.09735e-05)
(5.07433 -0.000135335 -7.47827e-05)
(4.87666 -0.000151261 1.02424e-05)
(4.88122 -0.000151822 1.29897e-05)
(4.88579 -0.000151904 2.3304e-05)
(4.89038 -0.000151427 3.20343e-05)
(4.89499 -0.000151564 3.43509e-05)
(4.89963 -0.00015269 2.75004e-05)
(4.9043 -0.000154076 9.61349e-06)
(4.90899 -0.000154512 -1.20544e-05)
(4.91369 -0.000153815 -2.75326e-05)
(4.91839 -0.000152848 -3.41162e-05)
(4.92312 -0.00015302 -3.74185e-05)
(4.92788 -0.000154424 -3.86851e-05)
(4.93265 -0.000155094 -3.6225e-05)
(4.93741 -0.000154445 -3.12376e-05)
(4.94212 -0.000153237 -2.36362e-05)
(4.94682 -0.000152643 -7.0743e-06)
(4.95154 -0.00015341 1.62915e-05)
(4.95628 -0.00015469 3.03839e-05)
(4.96102 -0.000154764 3.42234e-05)
(4.96573 -0.000153537 2.89732e-05)
(4.97042 -0.000152731 1.41721e-05)
(4.97513 -0.000152977 -4.47521e-06)
(4.97989 -0.000154523 -1.54353e-05)
(4.98469 -0.000156332 -1.49652e-05)
(4.9895 -0.000156996 -4.21512e-06)
(4.99429 -0.000156867 1.7141e-05)
(4.99905 -0.000155629 3.1099e-05)
(5.00376 -0.000153517 3.07608e-05)
(5.00842 -0.000151436 1.2864e-05)
(5.01306 -0.000148865 -1.10079e-05)
(5.01774 -0.000148339 -1.5171e-05)
(5.02253 -0.000151626 2.97054e-06)
(5.02738 -0.000156506 2.0302e-05)
(5.03225 -0.000160652 2.07223e-05)
(5.03697 -0.000158961 -1.1516e-05)
(5.04149 -0.000149045 -5.20011e-05)
(5.04591 -0.000138548 -5.99353e-05)
(5.0504 -0.000134786 -3.54719e-05)
(5.05525 -0.000143533 1.55399e-05)
(5.06046 -0.000162222 3.4344e-05)
(5.06553 -0.000169312 7.23948e-06)
(5.07013 -0.000156167 -6.69237e-05)
(5.0743 -0.00013352 -8.81141e-05)
(4.87666 -0.000151762 1.4082e-06)
(4.88122 -0.000151852 -1.16051e-06)
(4.88579 -0.000151254 9.14047e-06)
(4.89038 -0.000150617 2.33924e-05)
(4.89499 -0.000151247 2.69083e-05)
(4.89964 -0.000152992 1.80936e-05)
(4.90433 -0.000154679 1.3867e-06)
(4.90902 -0.000154927 -9.2141e-06)
(4.91373 -0.00015359 -1.17482e-05)
(4.91843 -0.000152042 -1.20552e-05)
(4.92315 -0.000152509 -1.58207e-05)
(4.92792 -0.000155031 -2.15966e-05)
(4.93269 -0.000156743 -2.39881e-05)
(4.93744 -0.000156058 -2.22828e-05)
(4.94215 -0.000153738 -1.72548e-05)
(4.94684 -0.00015206 -6.61516e-06)
(4.95156 -0.000152664 9.38854e-06)
(4.95631 -0.000154556 2.0768e-05)
(4.96106 -0.00015519 2.26775e-05)
(4.96577 -0.000154122 1.22085e-05)
(4.97046 -0.000153008 -4.91553e-06)
(4.97517 -0.000152773 -1.6851e-05)
(4.97992 -0.000153757 -1.96234e-05)
(4.98472 -0.000155199 -1.7723e-05)
(4.98953 -0.000155928 -9.79706e-06)
(4.99433 -0.000156274 7.39704e-06)
(4.99909 -0.00015564 2.44705e-05)
(5.00379 -0.000153631 3.00644e-05)
(5.00845 -0.000150842 2.46143e-05)
(5.01309 -0.000148126 5.1446e-06)
(5.01777 -0.000148567 -9.59123e-06)
(5.02256 -0.000153108 -7.67602e-06)
(5.02741 -0.000158684 5.19448e-06)
(5.03228 -0.000162157 1.01841e-05)
(5.037 -0.000158773 -4.23119e-06)
(5.04151 -0.000146988 -3.17144e-05)
(5.04593 -0.000136053 -4.22811e-05)
(5.05041 -0.000133428 -2.41235e-05)
(5.05527 -0.000144259 9.95186e-06)
(5.06048 -0.00016402 1.94053e-05)
(5.06555 -0.000171465 -1.86619e-05)
(5.07015 -0.000157176 -7.31363e-05)
(5.07436 -0.000132667 -7.486e-05)
(4.87663 -0.000150902 -1.13449e-05)
(4.88119 -0.00015052 -5.60507e-06)
(4.88577 -0.000150565 1.79643e-05)
(4.89036 -0.000151152 3.14095e-05)
(4.89498 -0.000152188 3.15523e-05)
(4.89963 -0.000153206 1.86261e-05)
(4.90431 -0.00015379 -1.9025e-06)
(4.90901 -0.000153889 -1.23049e-05)
(4.91371 -0.000153955 -1.29354e-05)
(4.91842 -0.000153836 -1.22587e-05)
(4.92314 -0.000154131 -1.56386e-05)
(4.9279 -0.00015523 -2.14604e-05)
(4.93267 -0.000155594 -2.47161e-05)
(4.93742 -0.000154783 -2.34061e-05)
(4.94214 -0.000153321 -1.73222e-05)
(4.94683 -0.00015259 -2.82056e-06)
(4.95156 -0.00015362 1.4193e-05)
(4.95632 -0.000155366 2.33177e-05)
(4.96107 -0.000155338 2.55417e-05)
(4.96578 -0.000153539 2.01966e-05)
(4.97048 -0.000152039 5.28596e-06)
(4.97518 -0.000151986 -8.98024e-06)
(4.97994 -0.000153678 -1.5e-05)
(4.98474 -0.000155629 -1.3468e-05)
(4.98955 -0.000156293 -7.87888e-06)
(4.99435 -0.000156154 -2.53966e-08)
(4.9991 -0.000155696 8.05955e-06)
(5.0038 -0.000154598 1.39656e-05)
(5.00846 -0.000152186 1.41577e-05)
(5.01309 -0.000148783 6.64699e-06)
(5.01777 -0.000147521 -4.43326e-06)
(5.02255 -0.000151205 -9.12876e-06)
(5.0274 -0.000157224 -6.26108e-06)
(5.03227 -0.000162106 -1.17349e-06)
(5.037 -0.000159462 -2.54296e-06)
(5.04152 -0.000147303 -1.31842e-05)
(5.04593 -0.000135469 -2.29034e-05)
(5.05042 -0.000132891 -1.79481e-05)
(5.05527 -0.0001447 -3.30046e-06)
(5.06049 -0.000165123 -3.15612e-06)
(5.06556 -0.00017177 -3.27401e-05)
(5.07015 -0.000155941 -6.56115e-05)
(5.07434 -0.000131437 -5.79033e-05)
(4.87663 -0.00014882 1.16049e-05)
(4.88119 -0.000149344 7.13043e-06)
(4.88576 -0.000151388 8.25547e-06)
(4.89036 -0.000153214 1.07962e-05)
(4.89497 -0.000153937 1.04486e-05)
(4.89962 -0.000153864 6.81393e-06)
(4.90429 -0.000153505 1.99825e-06)
(4.90899 -0.000153103 -4.25263e-06)
(4.91369 -0.000152974 -1.01864e-05)
(4.9184 -0.000152857 -1.23414e-05)
(4.92312 -0.000153583 -1.20791e-05)
(4.92788 -0.000155377 -1.18364e-05)
(4.93265 -0.000156289 -1.28861e-05)
(4.9374 -0.000155338 -1.27101e-05)
(4.94211 -0.00015323 -8.24155e-06)
(4.94681 -0.000151804 8.23352e-07)
(4.95154 -0.000152719 1.15581e-05)
(4.95631 -0.000155003 1.74295e-05)
(4.96107 -0.000155878 1.91451e-05)
(4.96579 -0.00015462 1.53323e-05)
(4.97048 -0.000153085 4.62488e-06)
(4.97518 -0.000152407 -7.81676e-06)
(4.97993 -0.000153232 -1.39139e-05)
(4.98472 -0.000154723 -1.47999e-05)
(4.98953 -0.000155768 -1.42387e-05)
(4.99433 -0.000156397 -1.39052e-05)
(4.99909 -0.000155856 -9.76777e-06)
(5.00379 -0.000153811 4.8065e-06)
(5.00845 -0.000150811 2.09997e-05)
(5.01308 -0.000147781 2.46122e-05)
(5.01777 -0.000147694 1.23563e-05)
(5.02254 -0.000152192 -1.18142e-05)
(5.02739 -0.00015804 -2.10008e-05)
(5.03227 -0.000162239 -1.35836e-05)
(5.037 -0.000159567 1.12109e-05)
(5.04151 -0.000147833 2.22098e-05)
(5.04593 -0.000136062 1.67795e-05)
(5.05041 -0.00013274 -6.07299e-06)
(5.05526 -0.000143765 -2.82754e-05)
(5.06049 -0.000164696 -4.08269e-05)
(5.06556 -0.00017249 -5.01189e-05)
(5.07015 -0.000157512 -4.86651e-05)
(5.0743 -0.000132107 -3.21037e-05)
(4.87666 -0.000151233 3.77563e-06)
(4.88122 -0.000151509 -1.28533e-05)
(4.88578 -0.00015215 -1.87049e-05)
(4.89037 -0.000152516 -1.43518e-05)
(4.89498 -0.000152455 -1.88452e-06)
(4.89963 -0.000152827 9.20001e-06)
(4.9043 -0.00015351 1.3351e-05)
(4.909 -0.000153822 1.1826e-05)
(4.91369 -0.000153534 3.48648e-06)
(4.91839 -0.000152942 -4.79059e-06)
(4.92311 -0.000153419 -8.44324e-06)
(4.92787 -0.00015517 -9.98952e-06)
(4.93264 -0.000156032 -1.11398e-05)
(4.93738 -0.00015511 -9.43838e-06)
(4.94209 -0.000153228 -1.33005e-06)
(4.94679 -0.000152137 9.00534e-06)
(4.95151 -0.00015309 1.62524e-05)
(4.95628 -0.000154932 1.8389e-05)
(4.96103 -0.00015532 1.75981e-05)
(4.96576 -0.000153905 1.33658e-05)
(4.97045 -0.000152647 3.25931e-06)
(4.97515 -0.000152628 -5.85784e-06)
(4.9799 -0.000154083 -9.07787e-06)
(4.9847 -0.000155851 -8.55417e-06)
(4.98951 -0.000156245 -1.07924e-05)
(4.99431 -0.000155686 -1.52559e-05)
(4.99906 -0.000154546 -1.64636e-05)
(5.00377 -0.000153372 -4.77235e-06)
(5.00844 -0.000152277 1.803e-05)
(5.01307 -0.000150096 2.65706e-05)
(5.01775 -0.000149017 1.74106e-05)
(5.02252 -0.000150999 -7.50627e-06)
(5.02736 -0.000155096 -2.06586e-05)
(5.03223 -0.000159548 -1.49923e-05)
(5.03697 -0.000158781 1.1147e-05)
(5.0415 -0.00014936 2.48364e-05)
(5.04592 -0.000139052 2.28586e-05)
(5.0504 -0.000135293 -6.38203e-08)
(5.05524 -0.000144251 -3.25678e-05)
(5.06046 -0.000162745 -4.96281e-05)
(5.06553 -0.000169769 -5.89293e-05)
(5.07014 -0.000157452 -3.90941e-05)
(5.07428 -0.000133843 -1.32164e-05)
(4.87662 -0.000150006 1.15238e-06)
(4.88117 -0.000149587 -1.65207e-05)
(4.88574 -0.000150527 -2.68697e-05)
(4.89034 -0.00015185 -2.86377e-05)
(4.89496 -0.000153037 -2.04091e-05)
(4.89961 -0.000154234 -5.13383e-06)
(4.90428 -0.000154806 7.46545e-06)
(4.90898 -0.00015443 1.02921e-05)
(4.91367 -0.000153611 5.95342e-06)
(4.91838 -0.000152922 -4.54499e-07)
(4.92311 -0.000153557 -6.63741e-06)
(4.92787 -0.000155417 -1.10434e-05)
(4.93263 -0.000156345 -1.25339e-05)
(4.93737 -0.000155344 -7.74033e-06)
(4.94207 -0.000153068 8.43411e-06)
(4.94676 -0.000151501 2.00971e-05)
(4.95149 -0.000152411 2.2387e-05)
(4.95625 -0.000154944 1.93672e-05)
(4.96101 -0.000156188 1.4201e-05)
(4.96572 -0.000155047 7.30346e-06)
(4.97041 -0.000153157 -2.67688e-06)
(4.9751 -0.000152067 -1.20402e-05)
(4.97985 -0.000153034 -1.57577e-05)
(4.98466 -0.000155245 -1.61223e-05)
(4.98948 -0.000156546 -1.59842e-05)
(4.99428 -0.000156391 -1.82793e-05)
(4.99904 -0.000154794 -1.91094e-05)
(5.00374 -0.000152738 -8.29481e-06)
(5.00841 -0.000151051 1.73521e-05)
(5.01306 -0.000149233 3.02294e-05)
(5.01775 -0.000149049 2.71878e-05)
(5.02252 -0.00015197 2.51981e-06)
(5.02737 -0.000156558 -1.78918e-05)
(5.03223 -0.000160995 -1.57565e-05)
(5.03697 -0.000159578 1.03202e-05)
(5.04149 -0.000149004 2.81716e-05)
(5.04591 -0.000137592 2.69982e-05)
(5.05039 -0.000133855 -8.3081e-07)
(5.05523 -0.000144472 -4.28078e-05)
(5.06046 -0.000164984 -6.06123e-05)
(5.06552 -0.000171555 -6.00631e-05)
(5.0701 -0.000157322 -1.47676e-05)
(5.07427 -0.000130956 8.70125e-06)
(4.87658 -0.000151921 -2.5465e-06)
(4.88113 -0.000151237 -1.90709e-05)
(4.88569 -0.000150836 -3.25526e-05)
(4.89028 -0.000150955 -3.65485e-05)
(4.8949 -0.000151807 -3.13313e-05)
(4.89955 -0.000153364 -1.47285e-05)
(4.90424 -0.00015472 5.82736e-06)
(4.90894 -0.000154642 1.46813e-05)
(4.91365 -0.000153824 1.42456e-05)
(4.91836 -0.000153089 9.76745e-06)
(4.92309 -0.000153479 5.49984e-06)
(4.92786 -0.000154746 3.27917e-07)
(4.93263 -0.000155095 -4.18294e-06)
(4.93737 -0.000154322 -2.15185e-06)
(4.94208 -0.000153338 6.89243e-06)
(4.94677 -0.000153145 1.38411e-05)
(4.95149 -0.000154119 1.32985e-05)
(4.95623 -0.000155516 5.14766e-06)
(4.96098 -0.000155592 -2.0106e-06)
(4.96569 -0.000154264 -4.24291e-06)
(4.97038 -0.000153013 -4.39743e-06)
(4.97509 -0.000152555 -4.81728e-06)
(4.97984 -0.000153644 -5.17165e-06)
(4.98464 -0.000155389 -5.78925e-06)
(4.98946 -0.000155901 -7.97124e-06)
(4.99426 -0.000155166 -1.26559e-05)
(4.99903 -0.000153832 -1.38843e-05)
(5.00374 -0.00015274 -5.45907e-07)
(5.00842 -0.000152236 2.12358e-05)
(5.01307 -0.000151024 3.10661e-05)
(5.01776 -0.0001502 2.46357e-05)
(5.02252 -0.000151615 -3.09331e-06)
(5.02736 -0.000154468 -1.99163e-05)
(5.03222 -0.000158243 -1.47241e-05)
(5.03695 -0.000157983 1.73258e-05)
(5.04149 -0.000149915 3.53849e-05)
(5.04592 -0.000140304 3.09508e-05)
(5.05039 -0.000136407 -7.97294e-06)
(5.05523 -0.000144866 -6.04603e-05)
(5.06044 -0.00016294 -8.50483e-05)
(5.06549 -0.000171192 -6.841e-05)
(5.07007 -0.000157024 4.31446e-06)
(5.07429 -0.000132108 2.64255e-05)
(4.87655 -0.000151342 -1.63794e-05)
(4.88111 -0.000149952 -2.2614e-05)
(4.88567 -0.000148795 -2.84281e-05)
(4.89027 -0.000148789 -3.22607e-05)
(4.8949 -0.000150877 -3.1483e-05)
(4.89956 -0.000154 -2.38265e-05)
(4.90426 -0.000156096 -3.14008e-06)
(4.90896 -0.000155924 1.864e-05)
(4.91367 -0.00015394 2.69068e-05)
(4.91838 -0.000152196 2.5615e-05)
(4.92312 -0.000152753 1.73764e-05)
(4.92789 -0.000155194 7.71928e-06)
(4.93265 -0.00015642 1.58069e-06)
(4.93739 -0.000155316 1.22198e-06)
(4.94209 -0.000153295 5.09084e-06)
(4.94678 -0.000152149 8.76188e-06)
(4.9515 -0.000152858 7.6827e-06)
(4.95625 -0.000154753 3.82141e-07)
(4.96099 -0.000155548 -7.44349e-06)
(4.96571 -0.000154682 -1.13103e-05)
(4.9704 -0.000153401 -1.13165e-05)
(4.9751 -0.000152588 -8.84551e-06)
(4.97985 -0.000153476 -5.02493e-06)
(4.98465 -0.000155502 -5.89844e-07)
(4.98947 -0.000156434 1.99069e-06)
(4.99427 -0.000155785 -1.96065e-06)
(4.99903 -0.0001539 -6.30135e-06)
(5.00374 -0.000152022 -1.34328e-07)
(5.00842 -0.000151543 1.48353e-05)
(5.01308 -0.000151134 2.70582e-05)
(5.01778 -0.000150941 2.76686e-05)
(5.02254 -0.000152174 1.27404e-05)
(5.02735 -0.000154434 -3.88389e-06)
(5.0322 -0.000157997 -6.0585e-06)
(5.03693 -0.000158099 7.19077e-06)
(5.04148 -0.000150279 2.19136e-05)
(5.04593 -0.000140639 1.38558e-05)
(5.05041 -0.000136606 -1.29375e-05)
(5.05524 -0.000144935 -5.20479e-05)
(5.06043 -0.000165482 -9.02469e-05)
(5.06552 -0.0001772 -9.83051e-05)
(5.07005 -0.000154635 5.89452e-06)
(5.07424 -0.000128138 2.96938e-05)
(4.87658 -0.000152224 -1.57235e-05)
(4.88113 -0.000151148 -1.64155e-06)
(4.88569 -0.000149883 2.26338e-06)
(4.89029 -0.000149186 -7.86638e-06)
(4.89491 -0.000149891 -2.5281e-05)
(4.89958 -0.000152216 -2.98355e-05)
(4.90427 -0.000154614 -2.0848e-05)
(4.90898 -0.000155864 1.04772e-05)
(4.9137 -0.000155527 3.64117e-05)
(4.91841 -0.000154066 4.32609e-05)
(4.92313 -0.000153109 3.90557e-05)
(4.92788 -0.000153849 2.4244e-05)
(4.93264 -0.000154522 2.9328e-06)
(4.93738 -0.000154265 -5.68443e-06)
(4.94208 -0.00015358 -4.96377e-06)
(4.94677 -0.000153263 -1.41477e-06)
(4.95149 -0.000154119 -3.48421e-06)
(4.95624 -0.000155503 -1.28027e-05)
(4.96098 -0.000155533 -1.84213e-05)
(4.9657 -0.000154118 -1.81715e-05)
(4.9704 -0.000152783 -1.43748e-05)
(4.9751 -0.00015235 -8.872e-06)
(4.97986 -0.000153574 -2.64686e-06)
(4.98466 -0.00015565 2.84992e-06)
(4.98948 -0.00015646 7.49649e-06)
(4.99428 -0.000155902 6.39672e-06)
(4.99904 -0.000154336 3.35859e-06)
(5.00374 -0.000152664 6.68583e-06)
(5.00843 -0.000151847 1.51751e-05)
(5.01309 -0.000150811 2.23864e-05)
(5.01778 -0.000150423 1.94484e-05)
(5.02253 -0.000152143 3.97626e-06)
(5.02734 -0.000154701 -5.12164e-06)
(5.03217 -0.000158015 -1.51092e-06)
(5.03691 -0.00015748 1.31377e-05)
(5.04147 -0.000149014 2.29258e-05)
(5.04594 -0.0001403 1.27054e-05)
(5.05042 -0.000137514 -2.38268e-05)
(5.05524 -0.000145554 -5.84524e-05)
(5.06042 -0.000172115 -8.02551e-05)
(5.06598 -0.000194056 -5.7548e-05)
(5.06994 -0.000143229 -2.28479e-05)
(5.07398 -0.000119018 6.04414e-05)
(4.87659 -0.000149733 -2.94957e-05)
(4.88116 -0.000150114 -1.40253e-05)
(4.88573 -0.000151223 8.72657e-07)
(4.89033 -0.000151784 1.42313e-06)
(4.89495 -0.000151706 -8.76147e-06)
(4.8996 -0.000152192 -1.66075e-05)
(4.90428 -0.000153208 -1.34517e-05)
(4.90899 -0.00015405 3.66181e-06)
(4.91371 -0.000154251 2.49383e-05)
(4.91842 -0.000154007 3.51777e-05)
(4.92314 -0.000154668 3.53187e-05)
(4.92789 -0.000156217 2.64343e-05)
(4.93264 -0.00015642 1.06147e-05)
(4.93736 -0.000154856 -8.20747e-07)
(4.94206 -0.000152971 -4.30474e-06)
(4.94675 -0.000152216 -6.36891e-06)
(4.95147 -0.000153089 -1.24436e-05)
(4.95623 -0.000154582 -1.90496e-05)
(4.96098 -0.000154854 -2.14881e-05)
(4.96571 -0.000154026 -1.88803e-05)
(4.97041 -0.000153293 -1.19204e-05)
(4.97512 -0.000152807 -2.56369e-06)
(4.97987 -0.000153606 4.96334e-06)
(4.98467 -0.000155523 7.06473e-06)
(4.98949 -0.000156604 6.36811e-06)
(4.99429 -0.000156389 -4.67916e-07)
(4.99904 -0.000154759 -6.26221e-06)
(5.00374 -0.000152838 1.10805e-06)
(5.00843 -0.000152247 1.81207e-05)
(5.0131 -0.000151552 2.83118e-05)
(5.01779 -0.000150851 2.62955e-05)
(5.02254 -0.000151789 6.09077e-06)
(5.02732 -0.000153344 -1.03231e-05)
(5.03215 -0.000156741 -1.19568e-05)
(5.03688 -0.000157707 3.93109e-06)
(5.04145 -0.000150847 1.81907e-05)
(5.04595 -0.000142552 1.34624e-05)
(5.05044 -0.000138093 -1.63482e-05)
(5.05523 -0.000144045 -3.93717e-05)
(5.0604 -0.000165262 -4.3442e-05)
(5.06555 -0.000181591 1.21684e-05)
(5.07012 -0.000157382 -4.84782e-05)
(5.07414 -0.000127723 7.72651e-05)
(4.87658 -0.000150869 -2.18324e-05)
(4.88114 -0.000150671 -5.60409e-06)
(4.88571 -0.000150662 1.78603e-06)
(4.8903 -0.000150683 -2.66024e-06)
(4.89492 -0.000151345 -1.31176e-05)
(4.89957 -0.000152975 -1.64714e-05)
(4.90426 -0.000154588 -1.16569e-05)
(4.90896 -0.000155099 9.27016e-06)
(4.91366 -0.000154391 3.05505e-05)
(4.91837 -0.000153254 3.79535e-05)
(4.92309 -0.000152958 3.5114e-05)
(4.92784 -0.000153769 2.17306e-05)
(4.93259 -0.000154184 3.11562e-06)
(4.93732 -0.000154231 -1.07918e-05)
(4.94203 -0.000154613 -1.73943e-05)
(4.94673 -0.000155069 -1.84957e-05)
(4.95145 -0.000155171 -1.59593e-05)
(4.9562 -0.000154947 -1.32334e-05)
(4.96095 -0.000153946 -1.21917e-05)
(4.96567 -0.000152832 -1.20685e-05)
(4.97038 -0.000152562 -1.02079e-05)
(4.9751 -0.00015254 -4.23485e-06)
(4.97986 -0.000153596 4.32231e-06)
(4.98467 -0.000155901 7.37632e-06)
(4.98948 -0.000157188 3.82384e-06)
(4.99428 -0.000156794 -3.80439e-06)
(4.99903 -0.000154451 -1.03695e-05)
(5.00373 -0.000151889 -7.61552e-06)
(5.00842 -0.000151577 3.81735e-06)
(5.01309 -0.000151988 1.45017e-05)
(5.01779 -0.000152219 1.73366e-05)
(5.02253 -0.000153018 1.1286e-05)
(5.02731 -0.000153544 4.19905e-07)
(5.03213 -0.000155824 -4.73665e-06)
(5.03686 -0.000156271 -2.22026e-06)
(5.04144 -0.000149675 4.66365e-06)
(5.04594 -0.000142447 7.6399e-06)
(5.05044 -0.000138744 4.05114e-07)
(5.05522 -0.000144862 -1.02836e-05)
(5.06038 -0.00016374 -1.69102e-05)
(5.06541 -0.000174011 -1.31497e-05)
(5.0701 -0.000160262 -3.01666e-05)
(5.07408 -0.000129378 6.76431e-05)
(4.87657 -0.000149054 -2.54474e-05)
(4.88113 -0.000150164 -1.27507e-05)
(4.88572 -0.000151968 -4.1024e-06)
(4.89032 -0.000152586 -5.77526e-06)
(4.89493 -0.00015203 -1.2277e-05)
(4.89958 -0.000152059 -1.51896e-05)
(4.90425 -0.00015312 -1.23084e-05)
(4.90896 -0.000154316 7.17434e-06)
(4.91367 -0.000154932 3.24888e-05)
(4.91838 -0.000154666 4.35734e-05)
(4.9231 -0.000154698 4.47305e-05)
(4.92783 -0.000155519 3.64024e-05)
(4.93257 -0.000155438 1.58217e-05)
(4.93729 -0.000153956 -1.19503e-05)
(4.94198 -0.000152429 -2.8557e-05)
(4.94668 -0.000151985 -3.20162e-05)
(4.95141 -0.000153005 -2.68927e-05)
(4.95618 -0.000154775 -1.54688e-05)
(4.96094 -0.000155189 -7.13954e-06)
(4.96566 -0.000154059 -5.26969e-06)
(4.97037 -0.000153083 -1.58509e-06)
(4.97509 -0.00015265 8.12485e-06)
(4.97986 -0.000153555 1.60581e-05)
(4.98467 -0.000155641 1.45404e-05)
(4.98949 -0.000157037 -1.98151e-06)
(4.99429 -0.000157191 -1.95885e-05)
(4.99904 -0.000155761 -2.4256e-05)
(5.00374 -0.000153427 -1.2037e-05)
(5.00842 -0.000152066 8.85769e-06)
(5.01309 -0.000151 1.62194e-05)
(5.01779 -0.000150643 1.41536e-05)
(5.02253 -0.000152069 2.46839e-06)
(5.02732 -0.000154031 -7.71427e-06)
(5.03214 -0.000157244 -8.22548e-06)
(5.03687 -0.000157517 -2.88346e-06)
(5.04143 -0.000150078 3.41247e-06)
(5.04594 -0.000141685 1.00884e-05)
(5.05043 -0.000137371 9.29919e-06)
(5.05523 -0.000143749 3.84514e-06)
(5.06039 -0.000162534 -3.57399e-06)
(5.06541 -0.000172505 -1.29514e-05)
(5.07008 -0.00016318 -1.84145e-05)
(5.07408 -0.000132251 2.92962e-05)
(4.87653 -0.000149833 -1.11506e-05)
(4.88109 -0.000150416 -6.49788e-06)
(4.88568 -0.000151296 -9.00079e-06)
(4.8903 -0.00015182 -1.35261e-05)
(4.89493 -0.000152351 -1.66766e-05)
(4.89959 -0.000153311 -1.77072e-05)
(4.90428 -0.000154369 -1.63334e-05)
(4.90898 -0.000154686 -6.04296e-06)
(4.91368 -0.000154424 1.4328e-05)
(4.91839 -0.000153726 3.05034e-05)
(4.9231 -0.000153604 3.4853e-05)
(4.92784 -0.000154582 2.92697e-05)
(4.93258 -0.00015509 1.62524e-05)
(4.9373 -0.00015456 -1.74864e-06)
(4.942 -0.000153505 -1.62122e-05)
(4.94669 -0.000152901 -2.13127e-05)
(4.95142 -0.000153485 -1.71806e-05)
(4.95618 -0.000154774 -6.64594e-06)
(4.96094 -0.000154717 1.68617e-06)
(4.96566 -0.000153092 5.48741e-06)
(4.97038 -0.000151715 9.1417e-06)
(4.9751 -0.00015168 1.45534e-05)
(4.97988 -0.000153957 1.66359e-05)
(4.98469 -0.000157163 5.56025e-06)
(4.98951 -0.000158622 -1.74987e-05)
(4.9943 -0.000157142 -3.24427e-05)
(4.99904 -0.000153746 -3.40163e-05)
(5.00374 -0.000151086 -2.23714e-05)
(5.00842 -0.000151495 -2.22052e-06)
(5.01311 -0.000152822 7.54537e-06)
(5.0178 -0.000153281 6.29691e-06)
(5.02254 -0.000153472 1.95028e-06)
(5.02732 -0.000153487 -1.21314e-06)
(5.03213 -0.00015549 -2.88789e-06)
(5.03686 -0.000155834 -4.54497e-06)
(5.04143 -0.000149603 1.9746e-07)
(5.04592 -0.000142153 1.54071e-05)
(5.05043 -0.000138256 2.70848e-05)
(5.05523 -0.000144411 3.03544e-05)
(5.06039 -0.000162172 1.71159e-05)
(5.06542 -0.000171421 -1.7852e-05)
(5.0701 -0.000163196 -2.8916e-05)
(5.07406 -0.00013364 -2.79024e-05)
(4.87651 -0.000149535 -7.54782e-06)
(4.88108 -0.00015128 -4.24494e-06)
(4.88566 -0.000152592 -5.89215e-06)
(4.89027 -0.00015247 -9.38827e-06)
(4.8949 -0.000151765 -1.09327e-05)
(4.89956 -0.000151609 -9.62582e-06)
(4.90425 -0.000152377 -3.3932e-06)
(4.90896 -0.000153373 1.06245e-05)
(4.91368 -0.000154 2.53611e-05)
(4.9184 -0.000154368 3.2469e-05)
(4.92312 -0.000155269 3.40401e-05)
(4.92786 -0.000156533 2.72332e-05)
(4.9326 -0.000156276 8.32253e-06)
(4.9373 -0.00015452 -1.39989e-05)
(4.94199 -0.000152583 -2.42609e-05)
(4.94669 -0.000151571 -2.56679e-05)
(4.95142 -0.000152554 -2.01271e-05)
(4.95619 -0.000154684 -7.56696e-06)
(4.96095 -0.000155523 5.54409e-06)
(4.96567 -0.000154473 1.7086e-05)
(4.97038 -0.000153194 2.5331e-05)
(4.9751 -0.000152624 2.97539e-05)
(4.97987 -0.000153802 2.71488e-05)
(4.98469 -0.000156152 4.05456e-06)
(4.98951 -0.000157256 -2.8799e-05)
(4.9943 -0.000156427 -4.1599e-05)
(4.99904 -0.000154268 -3.92185e-05)
(5.00373 -0.000152433 -2.36182e-05)
(5.00842 -0.000151926 -7.61277e-06)
(5.0131 -0.000151391 -4.41653e-06)
(5.0178 -0.000151025 -6.49282e-06)
(5.02255 -0.000152319 -4.54801e-06)
(5.02734 -0.000154622 1.912e-06)
(5.03216 -0.000158004 1.13374e-06)
(5.03687 -0.000157684 -5.43356e-06)
(5.04143 -0.000149435 -3.74108e-06)
(5.04592 -0.000140842 9.56992e-06)
(5.05043 -0.000137652 2.93984e-05)
(5.05525 -0.000145415 3.96207e-05)
(5.06041 -0.000164729 2.91406e-05)
(5.06544 -0.00017477 -4.67117e-06)
(5.07012 -0.000164599 8.76193e-06)
(5.07408 -0.000133205 -4.86148e-05)
(4.87652 -0.000149642 -7.97692e-06)
(4.88108 -0.000150735 -1.76529e-05)
(4.88567 -0.000151909 -1.99309e-05)
(4.89028 -0.000152111 -1.48591e-05)
(4.89492 -0.000152013 -1.83835e-06)
(4.89958 -0.000152687 7.06251e-06)
(4.90427 -0.000153993 8.17397e-06)
(4.90898 -0.000155004 8.57886e-06)
(4.91369 -0.000155301 1.24483e-05)
(4.9184 -0.000154731 1.85391e-05)
(4.92312 -0.000154501 2.08986e-05)
(4.92785 -0.000155362 1.49172e-05)
(4.93259 -0.000155651 5.25188e-06)
(4.9373 -0.000154374 -2.66852e-06)
(4.942 -0.000152559 -6.55728e-06)
(4.94669 -0.000151424 -5.67293e-06)
(4.95142 -0.00015211 -1.56e-06)
(4.95618 -0.000153933 2.82451e-06)
(4.96094 -0.00015443 6.60013e-06)
(4.96566 -0.000153244 1.24513e-05)
(4.97037 -0.000152587 1.91633e-05)
(4.9751 -0.000153567 2.37526e-05)
(4.97987 -0.000155933 1.92051e-05)
(4.98468 -0.000158542 -6.74421e-06)
(4.98949 -0.000158231 -3.45591e-05)
(4.99426 -0.000155363 -4.24795e-05)
(4.999 -0.000152147 -3.5566e-05)
(5.00371 -0.000150846 -1.6803e-05)
(5.00841 -0.00015222 -5.68791e-06)
(5.0131 -0.000153001 -7.99078e-06)
(5.0178 -0.00015249 -1.25465e-05)
(5.02254 -0.000152658 -1.16825e-05)
(5.02732 -0.000153498 -5.52938e-06)
(5.03214 -0.000156445 -5.93494e-06)
(5.03686 -0.00015696 -1.09545e-05)
(5.04143 -0.000149528 -3.12711e-06)
(5.04594 -0.000141673 1.46336e-05)
(5.05045 -0.000138669 3.64717e-05)
(5.05525 -0.00014581 4.80359e-05)
(5.06041 -0.00016564 3.12636e-05)
(5.06545 -0.000176927 1.30769e-06)
(5.07005 -0.000162112 3.53978e-05)
(5.07417 -0.000133333 -3.86553e-05)
(4.87652 -0.000149871 7.56609e-06)
(4.88109 -0.00015026 -6.95586e-06)
(4.88568 -0.000151102 -1.4831e-05)
(4.89029 -0.000151652 -9.89405e-06)
(4.89492 -0.000151968 3.48651e-06)
(4.89958 -0.000152534 9.22205e-06)
(4.90427 -0.000153347 5.56497e-06)
(4.90898 -0.000153896 -1.52161e-06)
(4.91369 -0.00015448 -2.64461e-06)
(4.91841 -0.000154986 4.84664e-06)
(4.92314 -0.000155622 1.17198e-05)
(4.92788 -0.000156595 8.65565e-06)
(4.93261 -0.000156215 7.40709e-07)
(4.93732 -0.000154309 -1.70596e-06)
(4.94202 -0.000152247 1.41569e-06)
(4.94671 -0.000151261 6.86717e-06)
(4.95144 -0.000152372 8.83978e-06)
(4.9562 -0.000154716 7.08542e-06)
(4.96095 -0.000155806 5.81792e-06)
(4.96566 -0.00015483 1.01184e-05)
(4.97037 -0.000153752 1.64634e-05)
(4.97508 -0.000153614 1.8686e-05)
(4.97985 -0.000154733 6.85795e-06)
(4.98466 -0.000156301 -2.07627e-05)
(4.98947 -0.000155973 -3.89133e-05)
(4.99426 -0.000154453 -4.17539e-05)
(4.99899 -0.00015339 -3.3576e-05)
(5.0037 -0.000153142 -2.19201e-05)
(5.00839 -0.000153488 -1.80486e-05)
(5.01308 -0.000152102 -1.73621e-05)
(5.01779 -0.000150182 -1.06024e-05)
(5.02254 -0.000150927 1.75928e-06)
(5.02733 -0.000153453 6.46762e-06)
(5.03214 -0.000157885 -4.78838e-06)
(5.03686 -0.000158414 -2.04636e-05)
(5.04142 -0.000149799 -1.17047e-05)
(5.04594 -0.000141221 2.1083e-05)
(5.05047 -0.000138427 5.2614e-05)
(5.05527 -0.000146181 6.35831e-05)
(5.06043 -0.000168633 3.97088e-05)
(5.0655 -0.000183459 -3.0998e-05)
(5.07002 -0.000159331 3.28367e-05)
(5.07415 -0.000129784 -2.57987e-05)
(4.87649 -0.000150347 1.31986e-05)
(4.88105 -0.000150585 -2.42501e-06)
(4.88564 -0.000151108 -1.27566e-05)
(4.89025 -0.000151599 -1.10601e-05)
(4.89489 -0.000152293 2.42694e-06)
(4.89955 -0.000153473 1.23161e-05)
(4.90424 -0.000154487 1.0949e-05)
(4.90895 -0.000154539 1.49412e-06)
(4.91366 -0.000154282 -6.05379e-06)
(4.91837 -0.000154124 -5.87569e-06)
(4.92309 -0.000154518 -2.62123e-06)
(4.92784 -0.000155608 -1.91029e-06)
(4.93258 -0.000155468 -1.49533e-06)
(4.9373 -0.000153817 3.43814e-06)
(4.94199 -0.000152238 1.26661e-05)
(4.94669 -0.000151765 1.65724e-05)
(4.95142 -0.000152852 1.20971e-05)
(4.95618 -0.000154389 5.83303e-09)
(4.96093 -0.00015446 -9.30768e-06)
(4.96565 -0.000153395 -9.18045e-06)
(4.97036 -0.000153391 4.64656e-07)
(4.97509 -0.000154761 1.03904e-05)
(4.97986 -0.000156637 9.39892e-06)
(4.98467 -0.000157558 -6.71628e-06)
(4.98947 -0.000155995 -2.52946e-05)
(4.99424 -0.000153635 -3.24218e-05)
(4.99898 -0.000152438 -3.13816e-05)
(5.00369 -0.000152418 -2.73569e-05)
(5.0084 -0.000152932 -2.30482e-05)
(5.01309 -0.000151943 -1.25149e-05)
(5.01779 -0.000150503 5.00558e-06)
(5.02255 -0.00015183 1.2472e-05)
(5.02733 -0.000154271 3.7744e-07)
(5.03215 -0.000157708 -2.20478e-05)
(5.03687 -0.000157137 -3.20854e-05)
(5.04143 -0.000148358 -1.52831e-05)
(5.04596 -0.000140764 3.34674e-05)
(5.05049 -0.000139693 6.52493e-05)
(5.05529 -0.000147711 7.30055e-05)
(5.06045 -0.000173184 5.19154e-05)
(5.06592 -0.000195327 6.31902e-06)
(5.06988 -0.000148753 -3.37385e-05)
(5.07397 -0.000122999 -7.40802e-06)
(4.87649 -0.000150626 1.68911e-05)
(4.88105 -0.000150333 3.13574e-07)
(4.88563 -0.000150539 -9.29612e-06)
(4.89023 -0.00015107 -4.70439e-06)
(4.89486 -0.000151882 8.80587e-06)
(4.89953 -0.000153112 1.4577e-05)
(4.90422 -0.000154144 1.16632e-05)
(4.90892 -0.000154525 -3.80654e-06)
(4.91364 -0.00015467 -1.5441e-05)
(4.91836 -0.000154934 -1.5795e-05)
(4.92309 -0.000155368 -1.12185e-05)
(4.92784 -0.000156011 -3.79942e-06)
(4.93258 -0.000155347 6.95984e-06)
(4.9373 -0.000153661 1.92523e-05)
(4.94201 -0.000152211 2.45869e-05)
(4.94671 -0.000151879 2.35624e-05)