0 	0 	0 	0
0.000401606 	2.40368 	-0.000380919 	-3.4302e-06
0.000803213 	4.80166 	-0.000756262 	-6.45387e-06
0.00120482 	6.1788 	-0.00113701 	-8.25845e-06
0.00160643 	6.57566 	-0.00152332 	-9.00608e-06
0.00200803 	6.97166 	-0.00190375 	-9.70557e-06
0.00240964 	7.2085 	-0.00235197 	-1.01745e-05
0.00281124 	7.42195 	-0.002806 	-1.06079e-05
0.00321285 	7.62963 	-0.00325835 	-1.10234e-05
0.00361446 	7.77584 	-0.00374152 	-1.12625e-05
0.00401606 	7.92183 	-0.00421937 	-1.15071e-05
0.00441767 	8.06327 	-0.00469695 	-1.17341e-05
0.00481928 	8.17414 	-0.00519695 	-1.18144e-05
0.00522088 	8.28488 	-0.00569185 	-1.19025e-05
0.00562249 	8.39552 	-0.00618279 	-1.19966e-05
0.0060241 	8.48452 	-0.00669293 	-1.19421e-05
0.0064257 	8.57343 	-0.0072 	-1.18919e-05
0.00682731 	8.66226 	-0.00770102 	-1.18509e-05
0.00722892 	8.74112 	-0.00821116 	-1.17214e-05
0.00763052 	8.81538 	-0.00872551 	-1.1551e-05
0.00803213 	8.88963 	-0.00923125 	-1.13915e-05
0.00843373 	8.96206 	-0.00973761 	-1.12135e-05
0.00883534 	9.02603 	-0.0102498 	-1.09446e-05
0.00923695 	9.09003 	-0.010759 	-1.06789e-05
0.00963855 	9.15407 	-0.0112619 	-1.04201e-05
0.0100402 	9.21466 	-0.0117651 	-1.01181e-05
0.0104418 	9.27125 	-0.0122689 	-9.76592e-06
0.0108434 	9.32792 	-0.0127679 	-9.41934e-06
0.011245 	9.38466 	-0.013262 	-9.07843e-06
0.0116466 	9.4385 	-0.0137533 	-8.69615e-06
0.0120482 	9.48979 	-0.014242 	-8.27732e-06
0.0124498 	9.54117 	-0.0147263 	-7.86564e-06
0.0128514 	9.59268 	-0.0152051 	-7.46274e-06
0.013253 	9.64273 	-0.0156795 	-7.03649e-06
0.0136546 	9.69029 	-0.0161462 	-6.57014e-06
0.0140562 	9.73788 	-0.0166112 	-6.10786e-06
0.0144578 	9.78573 	-0.0170678 	-5.66637e-06
0.0148594 	9.83357 	-0.0175243 	-5.22487e-06
0.015261 	9.87875 	-0.0179624 	-4.73785e-06
0.0156627 	9.92381 	-0.0183997 	-4.24895e-06
0.0160643 	9.9691 	-0.0188309 	-3.78333e-06
0.0164659 	10.0145 	-0.0192585 	-3.33154e-06
0.0168675 	10.0594 	-0.0196783 	-2.87151e-06
0.0172691 	10.103 	-0.0200792 	-2.39171e-06
0.0176707 	10.1466 	-0.0204802 	-1.91191e-06
0.0180723 	10.1906 	-0.0208717 	-1.47425e-06
0.0184739 	10.2346 	-0.0212611 	-1.04561e-06
0.0188755 	10.2784 	-0.0216366 	-6.14954e-07
0.0192771 	10.3217 	-0.0219866 	-1.80599e-07
0.0196787 	10.3651 	-0.0223366 	2.53756e-07
0.0200803 	10.4088 	-0.0226754 	6.40959e-07
0.0204819 	10.4527 	-0.0230101 	1.01141e-06
0.0208835 	10.4967 	-0.0233378 	1.37932e-06
0.0212851 	10.5414 	-0.0236145 	1.72893e-06
0.0216867 	10.586 	-0.0238912 	2.07854e-06
0.0220884 	10.631 	-0.0241609 	2.40247e-06
0.02249 	10.6764 	-0.0244178 	2.67939e-06
0.0228916 	10.7219 	-0.0246746 	2.95631e-06
0.0232932 	10.7685 	-0.0248856 	3.20019e-06
0.0236948 	10.8159 	-0.0250639 	3.42056e-06
0.0240964 	10.8633 	-0.0252422 	3.64094e-06
0.024498 	10.9112 	-0.0254061 	3.81436e-06
0.0248996 	10.9595 	-0.0255623 	3.96276e-06
0.0253012 	11.0078 	-0.0257185 	4.11117e-06
0.0257028 	11.0576 	-0.0258124 	4.1974e-06
0.0261044 	11.1079 	-0.0258821 	4.25951e-06
0.026506 	11.1583 	-0.0259519 	4.32163e-06
0.0269076 	11.2091 	-0.0260099 	4.34836e-06
0.0273092 	11.2603 	-0.0260605 	4.35309e-06
0.0277108 	11.3114 	-0.0261112 	4.35781e-06
0.0281124 	11.3631 	-0.0261241 	4.31945e-06
0.0285141 	11.4151 	-0.0261012 	4.24009e-06
0.0289157 	11.4672 	-0.0260783 	4.16074e-06
0.0293173 	11.5194 	-0.026052 	4.07406e-06
0.0297189 	11.5721 	-0.0260143 	3.96226e-06
0.0301205 	11.6248 	-0.0259766 	3.85047e-06
0.0305221 	11.6774 	-0.0259389 	3.73867e-06
0.0309237 	11.729 	-0.0258546 	3.58858e-06
0.0313253 	11.7805 	-0.0257672 	3.43603e-06
0.0317269 	11.8319 	-0.0256798 	3.28347e-06
0.0321285 	11.8836 	-0.0255868 	3.12861e-06
0.0325301 	11.9354 	-0.0254873 	2.97105e-06
0.0329317 	11.9872 	-0.0253878 	2.81348e-06
0.0333333 	12.039 	-0.0252882 	2.65592e-06
0.0337349 	12.0886 	-0.0251811 	2.51019e-06
0.0341365 	12.1381 	-0.0250738 	2.3647e-06
0.0345382 	12.1877 	-0.0249665 	2.21921e-06
0.0349398 	12.2374 	-0.0248569 	2.07882e-06
0.0353414 	12.2872 	-0.0247417 	1.95051e-06
0.035743 	12.3371 	-0.0246265 	1.82221e-06
0.0361446 	12.387 	-0.0245112 	1.6939e-06
0.0365462 	12.4371 	-0.0243467 	1.62439e-06
0.0369478 	12.4875 	-0.0241511 	1.59205e-06
0.0373494 	12.5379 	-0.0239554 	1.55971e-06
0.037751 	12.5883 	-0.0237597 	1.52737e-06
0.0381526 	12.6393 	-0.0235502 	1.52099e-06
0.0385542 	12.6905 	-0.0233351 	1.52509e-06
0.0389558 	12.7416 	-0.02312 	1.52919e-06
0.0393574 	12.7928 	-0.0229049 	1.53329e-06
0.039759 	12.844 	-0.022578 	1.48828e-06
0.0401606 	12.8952 	-0.0222252 	1.43189e-06
0.0405622 	12.9464 	-0.0218724 	1.3755e-06
0.0409639 	12.9976 	-0.0215196 	1.31912e-06
0.0413655 	13.0489 	-0.0211586 	1.28822e-06
0.0417671 	13.1002 	-0.0207939 	1.2692e-06
0.0421687 	13.1515 	-0.0204292 	1.25018e-06
0.0425703 	13.2028 	-0.0200645 	1.23116e-06
0.0429719 	13.2462 	-0.0197803 	1.1957e-06
0.0433735 	13.2832 	-0.0195612 	1.14694e-06
0.0437751 	13.3201 	-0.0193421 	1.09817e-06
0.0441767 	13.3571 	-0.019123 	1.04941e-06
0.0445783 	13.3938 	-0.0189067 	1.00338e-06
0.0449799 	13.4297 	-0.0187033 	9.69748e-07
0.0453815 	13.4655 	-0.0184999 	9.36121e-07
0.0457831 	13.5014 	-0.0182965 	9.02493e-07
0.0461847 	13.5372 	-0.0180931 	8.68865e-07
0.0465863 	13.5646 	-0.018067 	8.32206e-07
0.046988 	13.5899 	-0.018083 	7.94829e-07
0.0473896 	13.6152 	-0.0180989 	7.57452e-07
0.0477912 	13.6406 	-0.0181149 	7.20075e-07
0.0481928 	13.6658 	-0.0181321 	6.84492e-07
0.0485944 	13.6904 	-0.0181549 	6.57126e-07
0.048996 	13.7149 	-0.0181777 	6.2976e-07
0.0493976 	13.7395 	-0.0182005 	6.02394e-07
0.0497992 	13.7641 	-0.0182233 	5.75028e-07
0.0502008 	13.7878 	-0.018259 	5.5149e-07
0.0506024 	13.8107 	-0.0183052 	5.31081e-07
0.051004 	13.8337 	-0.0183514 	5.10672e-07
0.0514056 	13.8566 	-0.0183975 	4.90263e-07
0.0518072 	13.8795 	-0.0184437 	4.69854e-07
0.0522088 	13.9024 	-0.0184876 	4.51453e-07
0.0526104 	13.9254 	-0.0185302 	4.34137e-07
0.053012 	13.9484 	-0.0185728 	4.16821e-07
0.0534137 	13.9714 	-0.0186155 	3.99505e-07
0.0538153 	13.9943 	-0.0186581 	3.82189e-07
0.0542169 	14.0087 	-0.0186702 	3.82932e-07
0.0546185 	14.0202 	-0.018672 	3.89754e-07
0.0550201 	14.0316 	-0.0186738 	3.96577e-07
0.0554217 	14.0431 	-0.0186757 	4.034e-07
0.0558233 	14.0546 	-0.0186775 	4.10222e-07
0.0562249 	14.0661 	-0.0186802 	4.17208e-07
0.0566265 	14.0778 	-0.0186837 	4.24323e-07
0.0570281 	14.0894 	-0.0186871 	4.31437e-07
0.0574297 	14.101 	-0.0186905 	4.38552e-07
0.0578313 	14.1126 	-0.0186939 	4.45666e-07
0.0582329 	14.1206 	-0.0186883 	4.49105e-07
0.0586345 	14.1225 	-0.0186673 	4.46288e-07
0.0590361 	14.1243 	-0.0186463 	4.43472e-07
0.0594378 	14.1262 	-0.0186252 	4.40656e-07
0.0598394 	14.128 	-0.0186042 	4.37839e-07
0.060241 	14.1299 	-0.0185832 	4.35023e-07
0.0606426 	14.1318 	-0.0185633 	4.33528e-07
0.0610442 	14.1337 	-0.0185436 	4.32219e-07
0.0614458 	14.1356 	-0.0185239 	4.3091e-07
0.0618474 	14.1374 	-0.0185042 	4.29602e-07
0.062249 	14.1393 	-0.0184845 	4.28293e-07
0.0626506 	14.1405 	-0.0184663 	4.27825e-07
0.0630522 	14.1404 	-0.0184507 	4.28713e-07
0.0634538 	14.1404 	-0.0184352 	4.29601e-07
0.0638554 	14.1403 	-0.0184196 	4.30488e-07
0.064257 	14.1402 	-0.018404 	4.31376e-07
0.0646586 	14.1402 	-0.0183885 	4.32264e-07
0.0650602 	14.1401 	-0.0183737 	4.32681e-07
0.0654618 	14.14 	-0.0183596 	4.32736e-07
0.0658635 	14.14 	-0.0183455 	4.3279e-07
0.0662651 	14.1399 	-0.0183314 	4.32845e-07
0.0666667 	14.1398 	-0.0183173 	4.329e-07
0.0670683 	14.1398 	-0.0183032 	4.32954e-07
0.0674699 	14.1396 	-0.0182856 	4.28136e-07
0.0678715 	14.1394 	-0.018267 	4.21686e-07
0.0682731 	14.1391 	-0.0182483 	4.15235e-07
0.0686747 	14.1389 	-0.0182296 	4.08785e-07
0.0690763 	14.1387 	-0.0182109 	4.02334e-07
0.0694779 	14.1385 	-0.0181923 	3.95884e-07
0.0698795 	14.1383 	-0.0181746 	3.9005e-07
0.0702811 	14.138 	-0.0181576 	3.84643e-07
0.0706827 	14.1378 	-0.0181406 	3.79236e-07
0.0710843 	14.1376 	-0.0181237 	3.73829e-07
0.0714859 	14.1374 	-0.0181067 	3.68422e-07
0.0718876 	14.1371 	-0.0180897 	3.63015e-07
0.0722892 	14.1369 	-0.0180729 	3.60182e-07
0.0726908 	14.1367 	-0.0180564 	3.60729e-07
0.0730924 	14.1365 	-0.0180398 	3.61277e-07
0.073494 	14.1363 	-0.0180233 	3.61824e-07
0.0738956 	14.1361 	-0.0180067 	3.62371e-07
0.0742972 	14.1359 	-0.0179902 	3.62918e-07
0.0746988 	14.1357 	-0.0179737 	3.63466e-07
0.0751004 	14.1355 	-0.0179583 	3.63899e-07
0.075502 	14.1353 	-0.0179432 	3.64321e-07
0.0759036 	14.1351 	-0.017928 	3.64743e-07
0.0763052 	14.1349 	-0.0179128 	3.65165e-07
0.0767068 	14.1347 	-0.0178976 	3.65587e-07
0.0771084 	14.1345 	-0.0178824 	3.66009e-07
0.07751 	14.1343 	-0.0178664 	3.65019e-07
0.0779116 	14.1342 	-0.0178492 	3.61837e-07
0.0783133 	14.134 	-0.017832 	3.58655e-07
0.0787149 	14.1338 	-0.0178148 	3.55473e-07
0.0791165 	14.1336 	-0.0177976 	3.52291e-07
0.0795181 	14.1335 	-0.0177804 	3.49109e-07
0.0799197 	14.1333 	-0.0177632 	3.45927e-07
0.0803213 	14.1331 	-0.0177468 	3.43079e-07
0.0807229 	14.1329 	-0.0177311 	3.4058e-07
0.0811245 	14.1328 	-0.0177155 	3.38081e-07
0.0815261 	14.1326 	-0.0176999 	3.35582e-07
0.0819277 	14.1324 	-0.0176842 	3.33083e-07
0.0823293 	14.1322 	-0.0176686 	3.30584e-07
0.0827309 	14.1321 	-0.0176529 	3.28086e-07
0.0831325 	14.1319 	-0.0176368 	3.27421e-07
0.0835341 	14.1317 	-0.0176203 	3.28056e-07
0.0839357 	14.1316 	-0.0176038 	3.28691e-07
0.0843373 	14.1314 	-0.0175873 	3.29325e-07
0.084739 	14.1313 	-0.0175708 	3.2996e-07
0.0851406 	14.1311 	-0.0175542 	3.30595e-07
0.0855422 	14.131 	-0.0175377 	3.3123e-07
0.0859438 	14.1308 	-0.0175216 	3.31962e-07
0.0863454 	14.1306 	-0.0175065 	3.32947e-07
0.086747 	14.1305 	-0.0174913 	3.33932e-07
0.0871486 	14.1303 	-0.0174762 	3.34917e-07
0.0875502 	14.1302 	-0.017461 	3.35902e-07
0.0879518 	14.13 	-0.0174459 	3.36888e-07
0.0883534 	14.1298 	-0.0174307 	3.37873e-07
0.088755 	14.1297 	-0.0174156 	3.38858e-07
0.0891566 	14.1295 	-0.0173993 	3.36048e-07
0.0895582 	14.1294 	-0.0173829 	3.33111e-07
0.0899598 	14.1292 	-0.0173665 	3.30174e-07
0.0903614 	14.1291 	-0.0173501 	3.27237e-07
0.0907631 	14.1289 	-0.0173337 	3.243e-07
0.0911647 	14.1288 	-0.0173174 	3.21363e-07
0.0915663 	14.1286 	-0.017301 	3.18426e-07
0.0919679 	14.1285 	-0.0172849 	3.15633e-07
0.0923695 	14.1284 	-0.0172699 	3.13322e-07
0.0927711 	14.1282 	-0.0172549 	3.11011e-07
0.0931727 	14.1281 	-0.0172399 	3.08701e-07
0.0935743 	14.1279 	-0.0172249 	3.0639e-07
0.0939759 	14.1278 	-0.0172099 	3.04079e-07
0.0943775 	14.1276 	-0.0171949 	3.01769e-07
0.0947791 	14.1275 	-0.01718 	2.99458e-07
0.0951807 	14.1273 	-0.0171644 	2.98097e-07
0.0955823 	14.1272 	-0.0171484 	2.97722e-07
0.0959839 	14.1271 	-0.0171324 	2.97347e-07
0.0963855 	14.1269 	-0.0171163 	2.96972e-07
0.0967871 	14.1268 	-0.0171003 	2.96597e-07
0.0971888 	14.1267 	-0.0170843 	2.96222e-07
0.0975904 	14.1265 	-0.0170682 	2.95847e-07
0.097992 	14.1264 	-0.0170522 	2.95472e-07
0.0983936 	14.1263 	-0.0170365 	2.95233e-07
0.0987952 	14.1261 	-0.0170218 	2.95315e-07
0.0991968 	14.126 	-0.0170071 	2.95397e-07
0.0995984 	14.1259 	-0.0169923 	2.95479e-07
0.1 	14.1257 	-0.0169776 	2.95561e-07
