0 	0 	0 	0
0.000401606 	2.17422 	-9.32616e-05 	2.54241e-06
0.000803213 	4.34845 	-0.000186523 	5.08483e-06
0.00120482 	5.6049 	-0.000269331 	6.59736e-06
0.00160643 	5.97863 	-0.000342085 	7.11938e-06
0.00200803 	6.35237 	-0.000414838 	7.64139e-06
0.00240964 	6.57931 	-0.000485538 	7.83422e-06
0.00281124 	6.78492 	-0.00055594 	7.97924e-06
0.00321285 	6.9857 	-0.000624754 	8.10841e-06
0.00361446 	7.13219 	-0.000675719 	8.05948e-06
0.00401606 	7.27869 	-0.000726683 	8.01055e-06
0.00441767 	7.42154 	-0.000774027 	7.94575e-06
0.00481928 	7.53924 	-0.000796305 	7.77108e-06
0.00522088 	7.65693 	-0.000818583 	7.59641e-06
0.00562249 	7.77463 	-0.00084086 	7.42174e-06
0.0060241 	7.87678 	-0.000820128 	7.15228e-06
0.0064257 	7.97888 	-0.000799269 	6.88254e-06
0.00682731 	8.08098 	-0.00077841 	6.6128e-06
0.00722892 	8.17803 	-0.000712872 	6.28699e-06
0.00763052 	8.27274 	-0.000626701 	5.93529e-06
0.00803213 	8.36745 	-0.00054053 	5.58358e-06
0.00843373 	8.46185 	-0.000437501 	5.21979e-06
0.00883534 	8.55484 	-0.000255793 	4.79963e-06
0.00923695 	8.64782 	-7.40854e-05 	4.37946e-06
0.00963855 	8.7408 	0.000107622 	3.95929e-06
0.0100402 	8.83456 	0.00034816 	3.52232e-06
0.0104418 	8.92923 	0.000656997 	3.06586e-06
0.0108434 	9.0239 	0.000965835 	2.6094e-06
0.011245 	9.11857 	0.00127467 	2.15294e-06
0.0116466 	9.21479 	0.00166351 	1.70467e-06
0.0120482 	9.31239 	0.00212306 	1.26364e-06
0.0124498 	9.41 	0.0025826 	8.22616e-07
0.0128514 	9.5076 	0.00304215 	3.8159e-07
0.013253 	9.60573 	0.00355391 	-3.02151e-08
0.0136546 	9.70479 	0.00415538 	-3.91821e-07
0.0140562 	9.80384 	0.00475686 	-7.53426e-07
0.0144578 	9.90289 	0.00535833 	-1.11503e-06
0.0148594 	10.0019 	0.0059598 	-1.47664e-06
0.015261 	10.098 	0.0066022 	-1.66896e-06
0.0156627 	10.1939 	0.00724628 	-1.8543e-06
0.0160643 	10.2899 	0.00789036 	-2.03964e-06
0.0164659 	10.3858 	0.00853444 	-2.22498e-06
0.0168675 	10.4808 	0.00921926 	-2.35617e-06
0.0172691 	10.5737 	0.0100019 	-2.35728e-06
0.0176707 	10.6666 	0.0107846 	-2.35839e-06
0.0180723 	10.7594 	0.0115673 	-2.3595e-06
0.0184739 	10.8523 	0.0123499 	-2.36061e-06
0.0188755 	10.9435 	0.0131645 	-2.37005e-06
0.0192771 	11.0319 	0.0140375 	-2.39474e-06
0.0196787 	11.1204 	0.0149104 	-2.41942e-06
0.0200803 	11.2088 	0.0157834 	-2.4441e-06
0.0204819 	11.2972 	0.0166563 	-2.46878e-06
0.0208835 	11.3832 	0.0174803 	-2.47414e-06
0.0212851 	11.4519 	0.0179531 	-2.34099e-06
0.0216867 	11.5207 	0.018426 	-2.20783e-06
0.0220884 	11.5894 	0.0188988 	-2.07468e-06
0.02249 	11.6581 	0.0193716 	-1.94153e-06
0.0228916 	11.7269 	0.0198445 	-1.80838e-06
0.0232932 	11.7834 	0.0201026 	-1.64365e-06
0.0236948 	11.8313 	0.0202079 	-1.45645e-06
0.0240964 	11.8792 	0.0203133 	-1.26925e-06
0.024498 	11.9271 	0.0204186 	-1.08205e-06
0.0248996 	11.975 	0.020524 	-8.94851e-07
0.0253012 	12.0229 	0.0206293 	-7.0765e-07
0.0257028 	12.0655 	0.0206959 	-6.52919e-07
0.0261044 	12.1062 	0.0207473 	-6.49551e-07
0.026506 	12.1468 	0.0207988 	-6.46182e-07
0.0269076 	12.1874 	0.0208503 	-6.42813e-07
0.0273092 	12.2281 	0.0209018 	-6.39444e-07
0.0277108 	12.2687 	0.0209532 	-6.36075e-07
0.0281124 	12.308 	0.0210039 	-6.46627e-07
0.0285141 	12.3459 	0.0210537 	-6.70423e-07
0.0289157 	12.3839 	0.0211036 	-6.94218e-07
0.0293173 	12.4218 	0.0211534 	-7.18014e-07
0.0297189 	12.4598 	0.0212033 	-7.41809e-07
0.0301205 	12.4977 	0.0212531 	-7.65604e-07
0.0305221 	12.5357 	0.021303 	-7.894e-07
0.0309237 	12.5712 	0.0213453 	-7.77104e-07
0.0313253 	12.6066 	0.0213872 	-7.62489e-07
0.0317269 	12.6419 	0.0214291 	-7.47874e-07
0.0321285 	12.6773 	0.021471 	-7.33258e-07
0.0325301 	12.7126 	0.0215128 	-7.18643e-07
0.0329317 	12.748 	0.0215547 	-7.04028e-07
0.0333333 	12.7834 	0.0215966 	-6.89412e-07
0.0337349 	12.8157 	0.0216389 	-6.94951e-07
0.0341365 	12.848 	0.0216812 	-7.00888e-07
0.0345382 	12.8803 	0.0217234 	-7.06826e-07
0.0349398 	12.9127 	0.0217657 	-7.12764e-07
0.0353414 	12.945 	0.021808 	-7.18702e-07
0.035743 	12.9773 	0.0218503 	-7.2464e-07
0.0361446 	13.0096 	0.0218926 	-7.30578e-07
0.0365462 	13.0395 	0.0219278 	-7.15909e-07
0.0369478 	13.0679 	0.0219586 	-6.88209e-07
0.0373494 	13.0963 	0.0219893 	-6.60509e-07
0.037751 	13.1247 	0.02202 	-6.3281e-07
0.0381526 	13.1531 	0.0220508 	-6.0511e-07
0.0385542 	13.1815 	0.0220815 	-5.77411e-07
0.0389558 	13.21 	0.0221123 	-5.49711e-07
0.0393574 	13.2384 	0.022143 	-5.22012e-07
0.039759 	13.2626 	0.0221719 	-5.3304e-07
0.0401606 	13.2859 	0.0222004 	-5.53044e-07
0.0405622 	13.3092 	0.0222288 	-5.73048e-07
0.0409639 	13.3325 	0.0222573 	-5.93052e-07
0.0413655 	13.3558 	0.0222857 	-6.13056e-07
0.0417671 	13.3791 	0.0223142 	-6.33059e-07
0.0421687 	13.4024 	0.0223427 	-6.53063e-07
0.0425703 	13.4257 	0.0223711 	-6.73067e-07
0.0429719 	13.4451 	0.0223908 	-6.88551e-07
0.0433735 	13.4613 	0.0224034 	-7.00377e-07
0.0437751 	13.4775 	0.022416 	-7.12204e-07
0.0441767 	13.4937 	0.0224286 	-7.2403e-07
0.0445783 	13.5098 	0.0224411 	-7.35856e-07
0.0449799 	13.526 	0.0224537 	-7.47682e-07
0.0453815 	13.5422 	0.0224663 	-7.59508e-07
0.0457831 	13.5584 	0.0224789 	-7.71334e-07
0.0461847 	13.5746 	0.0224915 	-7.8316e-07
0.0465863 	13.5954 	0.0224985 	-7.80429e-07
0.046988 	13.6174 	0.0225041 	-7.74246e-07
0.0473896 	13.6394 	0.0225098 	-7.68064e-07
0.0477912 	13.6614 	0.0225155 	-7.61881e-07
0.0481928 	13.6834 	0.0225212 	-7.55698e-07
0.0485944 	13.7053 	0.0225268 	-7.49516e-07
0.048996 	13.7273 	0.0225325 	-7.43333e-07
0.0493976 	13.7493 	0.0225382 	-7.3715e-07
0.0497992 	13.7713 	0.0225439 	-7.30967e-07
0.0502008 	13.7945 	0.0225687 	-7.16705e-07
0.0506024 	13.8188 	0.0226092 	-6.95836e-07
0.051004 	13.843 	0.0226497 	-6.74968e-07
0.0514056 	13.8673 	0.0226902 	-6.54099e-07
0.0518072 	13.8915 	0.0227307 	-6.3323e-07
0.0522088 	13.9158 	0.0227711 	-6.12362e-07
0.0526104 	13.9401 	0.0228116 	-5.91493e-07
0.053012 	13.9643 	0.0228521 	-5.70625e-07
0.0534137 	13.9886 	0.0228926 	-5.49756e-07
0.0538153 	14.0128 	0.0229331 	-5.28887e-07
0.0542169 	14.0257 	0.0229437 	-5.14302e-07
0.0546185 	14.0348 	0.0229441 	-5.01832e-07
0.0550201 	14.0439 	0.0229446 	-4.89362e-07
0.0554217 	14.053 	0.0229451 	-4.76892e-07
0.0558233 	14.062 	0.0229456 	-4.64422e-07
0.0562249 	14.0711 	0.022946 	-4.51952e-07
0.0566265 	14.0802 	0.0229465 	-4.39482e-07
0.0570281 	14.0892 	0.022947 	-4.27012e-07
0.0574297 	14.0983 	0.0229475 	-4.14542e-07
0.0578313 	14.1074 	0.022948 	-4.02072e-07
0.0582329 	14.1132 	0.0229428 	-3.94969e-07
0.0586345 	14.1136 	0.0229279 	-3.96998e-07
0.0590361 	14.114 	0.022913 	-3.99027e-07
0.0594378 	14.1144 	0.0228982 	-4.01056e-07
0.0598394 	14.1148 	0.0228833 	-4.03085e-07
0.060241 	14.1152 	0.0228684 	-4.05114e-07
0.0606426 	14.1156 	0.0228536 	-4.07143e-07
0.0610442 	14.116 	0.0228387 	-4.09172e-07
0.0614458 	14.1164 	0.0228239 	-4.11201e-07
0.0618474 	14.1168 	0.022809 	-4.13231e-07
0.062249 	14.1172 	0.0227941 	-4.1526e-07
0.0626506 	14.1174 	0.0227796 	-4.13631e-07
0.0630522 	14.1172 	0.0227656 	-4.06094e-07
0.0634538 	14.117 	0.0227517 	-3.98557e-07
0.0638554 	14.1168 	0.0227377 	-3.91021e-07
0.064257 	14.1166 	0.0227237 	-3.83484e-07
0.0646586 	14.1163 	0.0227098 	-3.75947e-07
0.0650602 	14.1161 	0.0226958 	-3.68411e-07
0.0654618 	14.1159 	0.0226818 	-3.60874e-07
0.0658635 	14.1157 	0.0226678 	-3.53337e-07
0.0662651 	14.1155 	0.0226539 	-3.458e-07
0.0666667 	14.1153 	0.0226399 	-3.38264e-07
0.0670683 	14.1151 	0.0226259 	-3.30727e-07
0.0674699 	14.1149 	0.0226108 	-3.32625e-07
0.0678715 	14.1147 	0.0225953 	-3.37682e-07
0.0682731 	14.1145 	0.0225797 	-3.4274e-07
0.0686747 	14.1143 	0.0225642 	-3.47798e-07
0.0690763 	14.1141 	0.0225487 	-3.52855e-07
0.0694779 	14.1139 	0.0225332 	-3.57913e-07
0.0698795 	14.1137 	0.0225177 	-3.62971e-07
0.0702811 	14.1135 	0.0225022 	-3.68028e-07
0.0706827 	14.1132 	0.0224866 	-3.73086e-07
0.0710843 	14.113 	0.0224711 	-3.78144e-07
0.0714859 	14.1128 	0.0224556 	-3.83201e-07
0.0718876 	14.1126 	0.0224401 	-3.88259e-07
0.0722892 	14.1124 	0.0224254 	-3.87605e-07
0.0726908 	14.1123 	0.0224119 	-3.79452e-07
0.0730924 	14.1121 	0.0223984 	-3.713e-07
0.073494 	14.1119 	0.0223848 	-3.63147e-07
0.0738956 	14.1117 	0.0223713 	-3.54994e-07
0.0742972 	14.1116 	0.0223577 	-3.46841e-07
0.0746988 	14.1114 	0.0223442 	-3.38689e-07
0.0751004 	14.1112 	0.0223307 	-3.30536e-07
0.075502 	14.111 	0.0223171 	-3.22383e-07
0.0759036 	14.1109 	0.0223036 	-3.1423e-07
0.0763052 	14.1107 	0.0222901 	-3.06077e-07
0.0767068 	14.1105 	0.0222765 	-2.97925e-07
0.0771084 	14.1103 	0.022263 	-2.89772e-07
0.07751 	14.1102 	0.0222488 	-2.8521e-07
0.0779116 	14.11 	0.0222334 	-2.8622e-07
0.0783133 	14.1099 	0.0222181 	-2.87229e-07
0.0787149 	14.1097 	0.0222028 	-2.88239e-07
0.0791165 	14.1096 	0.0221874 	-2.89249e-07
0.0795181 	14.1094 	0.0221721 	-2.90259e-07
0.0799197 	14.1092 	0.0221568 	-2.91269e-07
0.0803213 	14.1091 	0.0221414 	-2.92278e-07
0.0807229 	14.1089 	0.0221261 	-2.93288e-07
0.0811245 	14.1088 	0.0221108 	-2.94298e-07
0.0815261 	14.1086 	0.0220955 	-2.95308e-07
0.0819277 	14.1085 	0.0220801 	-2.96318e-07
0.0823293 	14.1083 	0.0220648 	-2.97327e-07
0.0827309 	14.1082 	0.0220495 	-2.98337e-07
0.0831325 	14.108 	0.0220352 	-2.94641e-07
0.0835341 	14.1079 	0.0220218 	-2.87612e-07
0.0839357 	14.1077 	0.0220083 	-2.80582e-07
0.0843373 	14.1076 	0.0219948 	-2.73553e-07
0.084739 	14.1074 	0.0219814 	-2.66523e-07
0.0851406 	14.1073 	0.0219679 	-2.59493e-07
0.0855422 	14.1072 	0.0219544 	-2.52464e-07
0.0859438 	14.107 	0.0219409 	-2.45434e-07
0.0863454 	14.1069 	0.0219275 	-2.38404e-07
0.086747 	14.1067 	0.021914 	-2.31375e-07
0.0871486 	14.1066 	0.0219005 	-2.24345e-07
0.0875502 	14.1064 	0.0218871 	-2.17315e-07
0.0879518 	14.1063 	0.0218736 	-2.10286e-07
0.0883534 	14.1062 	0.0218601 	-2.03256e-07
0.088755 	14.106 	0.0218467 	-1.96227e-07
0.0891566 	14.1059 	0.0218316 	-1.96814e-07
0.0895582 	14.1058 	0.0218166 	-1.97658e-07
0.0899598 	14.1056 	0.0218015 	-1.98501e-07
0.0903614 	14.1055 	0.0217864 	-1.99344e-07
0.0907631 	14.1054 	0.0217713 	-2.00188e-07
0.0911647 	14.1052 	0.0217562 	-2.01031e-07
0.0915663 	14.1051 	0.0217411 	-2.01875e-07
0.0919679 	14.105 	0.0217261 	-2.02718e-07
0.0923695 	14.1049 	0.021711 	-2.03561e-07
0.0927711 	14.1047 	0.0216959 	-2.04405e-07
0.0931727 	14.1046 	0.0216808 	-2.05248e-07
0.0935743 	14.1045 	0.0216657 	-2.06092e-07
0.0939759 	14.1043 	0.0216507 	-2.06935e-07
0.0943775 	14.1042 	0.0216356 	-2.07778e-07
0.0947791 	14.1041 	0.0216205 	-2.08622e-07
0.0951807 	14.104 	0.0216062 	-2.06947e-07
0.0955823 	14.1038 	0.0215927 	-2.02661e-07
0.0959839 	14.1037 	0.0215792 	-1.98374e-07
0.0963855 	14.1036 	0.0215657 	-1.94088e-07
0.0967871 	14.1035 	0.0215522 	-1.89802e-07
0.0971888 	14.1034 	0.0215387 	-1.85516e-07
0.0975904 	14.1032 	0.0215252 	-1.8123e-07
0.097992 	14.1031 	0.0215117 	-1.76943e-07
0.0983936 	14.103 	0.0214982 	-1.72657e-07
0.0987952 	14.1029 	0.0214848 	-1.68371e-07
0.0991968 	14.1028 	0.0214713 	-1.64085e-07
0.0995984 	14.1026 	0.0214578 	-1.59799e-07
0.1 	14.1025 	0.0214443 	-1.55512e-07
