/*--------------------------------*- C++ -*----------------------------------*\
  =========                 |
  \\      /  F ield         | OpenFOAM: The Open Source CFD Toolbox
   \\    /   O peration     | Website:  https://openfoam.org
    \\  /    A nd           | Version:  9
     \\/     M anipulation  |
\*---------------------------------------------------------------------------*/
FoamFile
{
    format      ascii;
    class       volScalarField;
    location    "1200";
    object      k;
}
// * * * * * * * * * * * * * * * * * * * * * * * * * * * * * * * * * * * * * //

dimensions      [0 2 -2 0 0 0 0];

internalField   nonuniform List<scalar> 
329700
(
0.598803
0.578531
0.492025
0.447084
0.450436
0.472524
0.49503
0.512404
0.524474
0.532394
0.537386
0.540488
0.542459
0.543784
0.544759
0.545548
0.546206
0.546701
0.547048
0.547322
0.547591
0.547884
0.548213
0.548577
0.548954
0.549325
0.549694
0.550079
0.550495
0.550945
0.55142
0.551916
0.552437
0.552995
0.553589
0.554203
0.55482
0.55543
0.556039
0.55665
0.557268
0.557899
0.558541
0.559203
0.559887
0.560594
0.561315
0.562043
0.562772
0.563502
0.56424
0.564987
0.565742
0.566502
0.567271
0.568046
0.568832
0.569632
0.570441
0.571256
0.572074
0.572892
0.573709
0.574527
0.575349
0.576177
0.577012
0.577859
0.578715
0.579582
0.580455
0.581337
0.582227
0.583121
0.584015
0.584908
0.585801
0.586695
0.58759
0.588488
0.589391
0.5903
0.591214
0.592134
0.593058
0.593983
0.59491
0.59584
0.596773
0.597708
0.598639
0.599565
0.60049
0.601418
0.602353
0.603287
0.604219
0.605151
0.606086
0.607029
0.60798
0.60893
0.609876
0.610813
0.611742
0.61267
0.613599
0.614539
0.615489
0.61644
0.617388
0.618318
0.619229
0.620146
0.621068
0.622025
0.623024
0.623988
0.624896
0.625764
0.62664
0.627579
0.628577
0.629556
0.630486
0.631346
0.632163
0.633069
0.634071
0.635063
0.636009
0.636858
0.637629
0.638515
0.639526
0.640505
0.641422
0.642252
0.643025
0.643901
0.644869
0.6458
0.646673
0.647496
0.648304
0.649169
0.650073
0.650962
0.651849
0.652689
0.653476
0.65427
0.655082
0.655953
0.656908
0.657607
0.658678
0.598609
0.578834
0.4922
0.447106
0.450407
0.47251
0.495041
0.512431
0.524505
0.532428
0.537425
0.540528
0.542495
0.543815
0.544786
0.545571
0.546226
0.546717
0.547061
0.547332
0.547599
0.547891
0.54822
0.548587
0.548967
0.549339
0.549704
0.550083
0.550496
0.550945
0.551424
0.551925
0.552452
0.553015
0.55361
0.554221
0.55483
0.555431
0.556031
0.556639
0.557258
0.557892
0.558537
0.5592
0.559885
0.560593
0.561317
0.562047
0.562775
0.563501
0.564233
0.564977
0.565733
0.566498
0.567269
0.568044
0.568828
0.569625
0.570434
0.57125
0.572067
0.572883
0.573699
0.574519
0.575345
0.576178
0.577017
0.577864
0.578718
0.579583
0.580458
0.581343
0.582234
0.583127
0.58402
0.584913
0.585807
0.586702
0.587598
0.588494
0.589395
0.590302
0.591217
0.592137
0.59306
0.593985
0.594911
0.59584
0.596774
0.597708
0.59864
0.599567
0.600492
0.601422
0.602356
0.60329
0.604222
0.605153
0.606088
0.607031
0.607981
0.608931
0.609877
0.610815
0.611746
0.612676
0.613606
0.614545
0.615494
0.616443
0.617392
0.618323
0.619234
0.620149
0.621069
0.622025
0.623023
0.623992
0.624898
0.625771
0.626649
0.627586
0.628584
0.629563
0.630492
0.631348
0.632162
0.63307
0.634071
0.635061
0.636005
0.636857
0.637636
0.638524
0.639532
0.640507
0.64142
0.642252
0.643028
0.643903
0.644868
0.645799
0.646674
0.647499
0.648306
0.649171
0.650074
0.650964
0.651851
0.65269
0.653475
0.654271
0.655089
0.655959
0.65691
0.657607
0.658679
0.598836
0.578527
0.491987
0.447037
0.450397
0.472501
0.495016
0.512391
0.524459
0.532376
0.537371
0.540479
0.542453
0.543777
0.544747
0.54553
0.54618
0.546669
0.547013
0.547288
0.547561
0.547856
0.548187
0.548553
0.548933
0.549307
0.549675
0.550057
0.550471
0.55092
0.551397
0.551897
0.552424
0.552987
0.553582
0.554193
0.554801
0.5554
0.555999
0.556608
0.557229
0.557866
0.558516
0.559184
0.559874
0.560587
0.561313
0.562041
0.562767
0.563491
0.564223
0.564968
0.565723
0.566487
0.567256
0.568031
0.568814
0.569612
0.570422
0.571238
0.572057
0.572876
0.573694
0.574514
0.57534
0.576173
0.577013
0.577861
0.578719
0.579587
0.580463
0.581348
0.582239
0.583132
0.584026
0.584919
0.585814
0.586708
0.587603
0.588499
0.5894
0.590307
0.59122
0.592139
0.593061
0.593987
0.594914
0.595844
0.596779
0.597715
0.598648
0.599576
0.600501
0.601431
0.602367
0.603302
0.604233
0.605162
0.606096
0.607038
0.607988
0.608939
0.609885
0.610823
0.611754
0.612683
0.613612
0.614551
0.6155
0.616452
0.6174
0.61833
0.61924
0.62015
0.62107
0.62203
0.623028
0.623998
0.624907
0.625773
0.626648
0.627584
0.628592
0.629571
0.630498
0.631355
0.632159
0.633065
0.634079
0.635072
0.636013
0.63686
0.637639
0.638526
0.639533
0.640512
0.641425
0.642254
0.643029
0.643904
0.64487
0.645803
0.64668
0.647502
0.648306
0.649169
0.650075
0.650968
0.651855
0.652691
0.653473
0.654268
0.655089
0.655963
0.656911
0.657604
0.658677
0.598825
0.578185
0.491759
0.446984
0.450415
0.472507
0.494993
0.51235
0.524407
0.532317
0.537308
0.540411
0.54238
0.543705
0.54468
0.545467
0.546122
0.546615
0.546964
0.547242
0.547516
0.547812
0.548143
0.548509
0.548888
0.549261
0.549628
0.55001
0.550426
0.550876
0.551355
0.551855
0.552381
0.552942
0.553537
0.55415
0.554764
0.555373
0.555981
0.556597
0.557222
0.55786
0.558508
0.559172
0.559857
0.560566
0.561291
0.562021
0.562751
0.56348
0.564216
0.564962
0.565719
0.566484
0.567257
0.568034
0.56882
0.569618
0.570427
0.571241
0.572057
0.572873
0.573692
0.574514
0.575344
0.57618
0.577022
0.577871
0.578728
0.579594
0.580469
0.581352
0.582242
0.583133
0.584026
0.58492
0.585815
0.586709
0.587603
0.588499
0.589401
0.590309
0.591223
0.592143
0.593067
0.593993
0.594921
0.595851
0.596786
0.597722
0.598654
0.59958
0.600506
0.601437
0.602373
0.603309
0.60424
0.605169
0.606102
0.607044
0.607995
0.608946
0.609892
0.61083
0.611761
0.612689
0.613619
0.614557
0.615506
0.616457
0.617406
0.618335
0.619245
0.620154
0.621073
0.622034
0.623033
0.624003
0.624906
0.62578
0.626656
0.627588
0.628602
0.62958
0.630505
0.631361
0.632156
0.633064
0.634084
0.635073
0.636011
0.636863
0.637646
0.638533
0.639538
0.640511
0.641424
0.642256
0.643033
0.643907
0.644869
0.645802
0.646683
0.647506
0.648309
0.64917
0.650076
0.65097
0.651858
0.652693
0.653472
0.654272
0.655098
0.655971
0.656915
0.657606
0.658678
0.598603
0.578775
0.492135
0.447033
0.450339
0.472458
0.495
0.512398
0.524476
0.532395
0.537387
0.540486
0.54245
0.543773
0.544744
0.545524
0.546171
0.546655
0.546996
0.547268
0.547537
0.54783
0.548159
0.548525
0.548908
0.549288
0.549663
0.550052
0.55047
0.550921
0.551399
0.551898
0.552422
0.552981
0.55357
0.554173
0.554776
0.555375
0.555979
0.556595
0.557225
0.557869
0.558524
0.559191
0.559876
0.560581
0.561299
0.562025
0.562752
0.563479
0.564214
0.564959
0.565715
0.566479
0.567249
0.568025
0.568808
0.569606
0.570415
0.571229
0.572046
0.572864
0.573684
0.574507
0.575337
0.576173
0.577015
0.577865
0.578723
0.57959
0.580465
0.581349
0.582238
0.58313
0.584022
0.584915
0.585809
0.586703
0.587598
0.588496
0.589399
0.590307
0.591221
0.592141
0.593064
0.593991
0.594919
0.595849
0.596783
0.597719
0.598651
0.599579
0.600505
0.601437
0.602374
0.60331
0.604242
0.605172
0.606106
0.607049
0.607999
0.60895
0.609896
0.610834
0.611763
0.612691
0.613619
0.614557
0.615505
0.616456
0.617405
0.618336
0.619246
0.620156
0.621075
0.622034
0.623034
0.624005
0.624907
0.625777
0.626655
0.627588
0.628604
0.629585
0.630511
0.631363
0.632155
0.633062
0.634087
0.63508
0.636016
0.636862
0.637645
0.638535
0.639541
0.640515
0.641426
0.642257
0.643035
0.64391
0.644871
0.645804
0.646687
0.647512
0.648314
0.649172
0.650077
0.650973
0.651863
0.652698
0.653475
0.654269
0.655097
0.655975
0.656918
0.657606
0.658679
0.598825
0.578191
0.491761
0.446978
0.450407
0.472501
0.494989
0.512349
0.524407
0.532315
0.537303
0.540405
0.542374
0.543702
0.544678
0.545467
0.546122
0.546615
0.546964
0.547243
0.547517
0.547812
0.548143
0.548507
0.548885
0.549258
0.549627
0.550011
0.550427
0.550879
0.551359
0.55186
0.552386
0.552947
0.55354
0.55415
0.55476
0.555364
0.555971
0.556589
0.557218
0.557857
0.558503
0.559162
0.559843
0.56055
0.561276
0.562007
0.562737
0.563464
0.564198
0.564945
0.565704
0.566471
0.567242
0.568017
0.5688
0.569598
0.570409
0.571226
0.572044
0.572862
0.573679
0.574501
0.57533
0.576166
0.57701
0.577861
0.578721
0.579589
0.580465
0.581348
0.582238
0.583131
0.584024
0.584917
0.58581
0.586703
0.587597
0.588495
0.589397
0.590304
0.591218
0.592136
0.59306
0.593986
0.594914
0.595845
0.596779
0.597714
0.598646
0.599573
0.600501
0.601434
0.602373
0.60331
0.604243
0.605172
0.606105
0.607047
0.607997
0.608948
0.609894
0.610832
0.611762
0.612689
0.613618
0.614556
0.615504
0.616455
0.617403
0.618334
0.619245
0.620155
0.621074
0.622034
0.623034
0.624005
0.624909
0.625774
0.626648
0.627585
0.628606
0.629585
0.630508
0.631362
0.632155
0.633065
0.634092
0.635081
0.636014
0.636861
0.637648
0.638539
0.639543
0.640513
0.641423
0.642258
0.64304
0.643915
0.644872
0.645804
0.64669
0.647517
0.648318
0.649175
0.650078
0.650975
0.651866
0.652699
0.653473
0.654271
0.655107
0.655984
0.656922
0.657608
0.658681
0.598834
0.578526
0.491982
0.447022
0.450377
0.472485
0.495004
0.512384
0.524453
0.532368
0.53736
0.540466
0.542441
0.54377
0.544743
0.545526
0.546175
0.546661
0.547005
0.547283
0.547557
0.547853
0.548182
0.548546
0.548925
0.5493
0.549669
0.550054
0.550469
0.550917
0.551393
0.551892
0.55242
0.552984
0.553581
0.554192
0.5548
0.555398
0.555997
0.556605
0.557226
0.557862
0.558511
0.559178
0.559867
0.560578
0.561301
0.562029
0.562756
0.563484
0.564218
0.564964
0.56572
0.566484
0.567253
0.568029
0.568814
0.569613
0.570423
0.571237
0.572054
0.572871
0.57369
0.574513
0.575341
0.576176
0.577017
0.577866
0.578725
0.579593
0.580468
0.58135
0.582239
0.583132
0.584026
0.58492
0.585815
0.586708
0.587601
0.588498
0.5894
0.590307
0.59122
0.592139
0.593062
0.593987
0.594913
0.595843
0.596778
0.597712
0.598643
0.59957
0.600497
0.601429
0.602367
0.603304
0.604237
0.605168
0.606101
0.607043
0.607993
0.608943
0.60989
0.610828
0.611759
0.612687
0.613615
0.614552
0.615499
0.616449
0.617398
0.618331
0.619242
0.620152
0.62107
0.622029
0.623029
0.624
0.624909
0.625773
0.626639
0.627579
0.628604
0.629584
0.630508
0.631363
0.632156
0.633064
0.634091
0.635081
0.636012
0.63686
0.637648
0.63854
0.639543
0.640511
0.641421
0.642257
0.643042
0.643916
0.64487
0.645801
0.64669
0.647523
0.648323
0.649174
0.650075
0.650975
0.651871
0.652704
0.653472
0.654266
0.655105
0.655988
0.656925
0.657606
0.658679
0.598607
0.578763
0.492125
0.447044
0.450359
0.472476
0.495014
0.512408
0.524481
0.5324
0.537391
0.540492
0.54246
0.543786
0.544762
0.545549
0.546201
0.546689
0.547034
0.547308
0.547578
0.54787
0.548198
0.548562
0.54894
0.549313
0.549681
0.550064
0.550478
0.550926
0.551403
0.551904
0.552432
0.552996
0.553594
0.554206
0.554816
0.555417
0.556016
0.556624
0.557244
0.557878
0.558523
0.559185
0.559871
0.560582
0.561306
0.562035
0.562763
0.56349
0.564223
0.564968
0.565725
0.566491
0.567261
0.568037
0.568822
0.569619
0.570428
0.571243
0.572062
0.572881
0.573699
0.574519
0.575345
0.576178
0.577019
0.577868
0.578725
0.57959
0.580464
0.581347
0.582238
0.583131
0.584024
0.584917
0.585809
0.5867
0.587593
0.58849
0.589393
0.590302
0.591215
0.592134
0.593057
0.593983
0.594911
0.595841
0.596776
0.597709
0.59864
0.599566
0.600492
0.601424
0.602362
0.603298
0.60423
0.605159
0.606091
0.607033
0.607984
0.608936
0.609884
0.610823
0.611754
0.612683
0.613614
0.614553
0.6155
0.616449
0.617397
0.618329
0.619241
0.620151
0.621069
0.622027
0.623027
0.623998
0.6249
0.62577
0.626632
0.627576
0.628604
0.629582
0.630502
0.631358
0.632155
0.633068
0.634096
0.635083
0.63601
0.636856
0.637647
0.638541
0.63954
0.640506
0.641415
0.642255
0.643046
0.64392
0.644868
0.645798
0.646691
0.647525
0.648323
0.649173
0.650073
0.650974
0.651871
0.652701
0.653467
0.654265
0.655111
0.655993
0.656925
0.657604
0.658678
0.598825
0.578207
0.491786
0.447
0.450422
0.47251
0.494998
0.512357
0.524413
0.532324
0.537313
0.540416
0.542387
0.543714
0.544691
0.545483
0.54614
0.546636
0.546988
0.547268
0.547542
0.547836
0.548163
0.548525
0.548901
0.549275
0.549647
0.550035
0.550452
0.550902
0.551377
0.551875
0.552402
0.552967
0.553567
0.554185
0.554801
0.555409
0.556015
0.556627
0.557247
0.557879
0.558519
0.559181
0.559869
0.560581
0.561307
0.562036
0.562764
0.563492
0.564227
0.564973
0.565729
0.566492
0.56726
0.568035
0.568821
0.569621
0.570431
0.571244
0.572057
0.57287
0.573685
0.574505
0.575332
0.576167
0.577009
0.577859
0.578717
0.579582
0.580455
0.581336
0.582225
0.583117
0.584012
0.584906
0.585799
0.58669
0.587583
0.588479
0.589381
0.59029
0.591205
0.592125
0.59305
0.593977
0.594906
0.595838
0.596774
0.597709
0.59864
0.599567
0.600493
0.601423
0.602358
0.603293
0.604224
0.605154
0.606087
0.60703
0.60798
0.608932
0.609881
0.610821
0.611754
0.612685
0.613616
0.614553
0.615498
0.616447
0.617395
0.618328
0.619241
0.620151
0.621068
0.622026
0.623026
0.623997
0.624894
0.625771
0.626632
0.627574
0.628603
0.629582
0.630503
0.631359
0.632157
0.633069
0.634097
0.635081
0.636005
0.636853
0.637647
0.638543
0.639542
0.640502
0.641409
0.642253
0.643048
0.643921
0.644865
0.645791
0.646688
0.647528
0.648327
0.64917
0.650066
0.650972
0.651875
0.652705
0.653464
0.654257
0.655107
0.655996
0.656927
0.657599
0.658672
0.598832
0.578526
0.491998
0.447046
0.450402
0.472503
0.49502
0.512397
0.524464
0.532383
0.537375
0.540478
0.54245
0.543773
0.544747
0.545536
0.546192
0.546687
0.547036
0.547309
0.547575
0.547863
0.548187
0.548549
0.548928
0.549304
0.549676
0.550061
0.550479
0.550931
0.551411
0.551915
0.552444
0.553009
0.553606
0.554219
0.554829
0.555431
0.556031
0.556639
0.557259
0.557891
0.558533
0.559192
0.559875
0.560581
0.561304
0.562033
0.562762
0.563489
0.564222
0.564966
0.56572
0.566483
0.567252
0.568029
0.568815
0.569613
0.570421
0.571233
0.572049
0.572865
0.573683
0.574504
0.575332
0.576167
0.577011
0.577863
0.578721
0.579585
0.580455
0.581335
0.582224
0.583117
0.584011
0.584904
0.585796
0.586687
0.58758
0.588477
0.589381
0.590291
0.591207
0.592129
0.593055
0.593983
0.594912
0.595844
0.59678
0.597714
0.598644
0.59957
0.600495
0.601425
0.602361
0.603295
0.604227
0.605157
0.60609
0.607031
0.607982
0.608934
0.609882
0.610822
0.611754
0.612685
0.613617
0.614555
0.6155
0.616446
0.617392
0.618324
0.619238
0.620151
0.62107
0.622027
0.623026
0.624002
0.624895
0.625766
0.626628
0.627573
0.6286
0.629576
0.630496
0.631356
0.632159
0.633074
0.634102
0.635084
0.636003
0.636847
0.637644
0.638542
0.63954
0.640499
0.641404
0.642249
0.643049
0.643923
0.644863
0.645788
0.646686
0.647527
0.648325
0.649168
0.650062
0.650967
0.651872
0.652701
0.653459
0.654255
0.655109
0.655996
0.656924
0.657596
0.65867
0.598605
0.578861
0.492228
0.447118
0.450409
0.47251
0.495044
0.512436
0.524511
0.532435
0.537429
0.54053
0.542498
0.54382
0.544794
0.54558
0.546233
0.546723
0.547068
0.547339
0.547607
0.547899
0.548226
0.54859
0.548968
0.54934
0.549708
0.55009
0.550504
0.550954
0.551432
0.551931
0.552456
0.553019
0.553615
0.554227
0.554837
0.555439
0.55604
0.556649
0.55727
0.557901
0.558542
0.559203
0.559887
0.560596
0.561319
0.562047
0.562774
0.5635
0.564233
0.564976
0.56573
0.566492
0.567262
0.568038
0.568823
0.569622
0.570431
0.571247
0.572064
0.572879
0.573692
0.574509
0.575333
0.576168
0.577012
0.577865
0.578725
0.579593
0.580465
0.581345
0.582232
0.583122
0.584015
0.584907
0.585799
0.58669
0.587582
0.588479
0.589383
0.590293
0.59121
0.592132
0.593058
0.593987
0.594915
0.595845
0.596779
0.597712
0.598642
0.599568
0.600494
0.601424
0.602359
0.603294
0.604226
0.605157
0.606091
0.607034
0.607985
0.608936
0.609884
0.610823
0.611754
0.612686
0.613618
0.614555
0.615499
0.616443
0.617388
0.61832
0.619234
0.62015
0.62107
0.622027
0.623023
0.624063
0.624899
0.625736
0.626625
0.627575
0.628591
0.629565
0.630493
0.631358
0.632162
0.633074
0.6341
0.635079
0.635996
0.636843
0.637643
0.638543
0.639541
0.640494
0.641396
0.642246
0.64305
0.643925
0.644861
0.645781
0.64668
0.647526
0.648326
0.649166
0.650058
0.650964
0.651872
0.652701
0.653457
0.65425
0.655105
0.655996
0.656923
0.657592
0.658665
0.598837
0.578545
0.49203
0.447086
0.450438
0.472527
0.495034
0.512408
0.524479
0.532399
0.53739
0.540489
0.54246
0.543787
0.544765
0.545556
0.546213
0.546707
0.547055
0.54733
0.547601
0.547895
0.548223
0.548586
0.548962
0.549333
0.549702
0.550086
0.550502
0.550951
0.551424
0.551917
0.552436
0.552992
0.553587
0.554205
0.554828
0.555443
0.556056
0.556671
0.557291
0.557921
0.558561
0.55922
0.559903
0.56061
0.561332
0.562061
0.56279
0.563517
0.564251
0.564995
0.565748
0.566508
0.567274
0.568048
0.568833
0.569632
0.570441
0.571255
0.572071
0.572887
0.573704
0.574522
0.575346
0.576178
0.577019
0.577869
0.578728
0.579593
0.580463
0.581344
0.582233
0.583126
0.58402
0.584911
0.585802
0.586693
0.587587
0.588486
0.589389
0.590298
0.591213
0.592134
0.59306
0.593988
0.594917
0.595847
0.596779
0.597709
0.598637
0.599563
0.600489
0.601421
0.602357
0.603294
0.604227
0.605158
0.606092
0.607035
0.607986
0.608937
0.609885
0.610823
0.611754
0.612685
0.613617
0.614555
0.615498
0.616441
0.617384
0.618315
0.619229
0.620149
0.62107
0.622027
0.623026
0.624005
0.624914
0.625756
0.62662
0.627572
0.628595
0.629567
0.630488
0.631351
0.632158
0.633073
0.634101
0.635082
0.635995
0.636837
0.637636
0.638539
0.639537
0.640491
0.641393
0.642242
0.643048
0.643922
0.644857
0.645778
0.646678
0.647524
0.648322
0.649161
0.650051
0.650958
0.651867
0.652697
0.653452
0.654246
0.655103
0.655994
0.656919
0.657588
0.658663
0.598617
0.578812
0.492192
0.447125
0.45044
0.472541
0.495067
0.512453
0.524522
0.532443
0.537434
0.540532
0.542498
0.543819
0.544792
0.545579
0.54623
0.54672
0.547065
0.547337
0.547606
0.547899
0.548227
0.548592
0.54897
0.54934
0.549705
0.550085
0.5505
0.55095
0.551428
0.551927
0.552451
0.553011
0.553605
0.554218
0.55483
0.555434
0.556036
0.556644
0.557262
0.557894
0.558537
0.559198
0.559881
0.560588
0.561312
0.562044
0.562776
0.563507
0.564241
0.564985
0.565738
0.566501
0.567269
0.568043
0.568826
0.569623
0.570433
0.571249
0.572067
0.572885
0.573701
0.574519
0.575344
0.576177
0.577021
0.577873
0.578733
0.579598
0.580467
0.581345
0.58223
0.583121
0.584015
0.584908
0.5858
0.586692
0.587585
0.588482
0.589384
0.590293
0.591208
0.592128
0.593053
0.59398
0.594907
0.595836
0.596768
0.5977
0.598629
0.599557
0.600484
0.601415
0.602351
0.603286
0.60422
0.605153
0.606089
0.607033
0.607984
0.608936
0.609883
0.610822
0.611752
0.612684
0.613616
0.614553
0.615496
0.616437
0.61738
0.618311
0.619227
0.620148
0.62107
0.622024
0.623022
0.623986
0.62491
0.625742
0.626611
0.62757
0.628596
0.629565
0.630486
0.63135
0.632157
0.63307
0.634097
0.635075
0.635989
0.636836
0.637636
0.638538
0.639536
0.640487
0.641388
0.642239
0.643047
0.643922
0.644855
0.645774
0.646673
0.64752
0.648319
0.649158
0.650049
0.650956
0.651865
0.652695
0.65345
0.654244
0.655102
0.655992
0.656916
0.657586
0.658661
0.598837
0.578546
0.492036
0.447094
0.450444
0.47253
0.495036
0.51241
0.524481
0.532402
0.537391
0.540488
0.542456
0.543779
0.544751
0.545534
0.546181
0.546668
0.547013
0.547289
0.547565
0.547864
0.548198
0.548565
0.548941
0.549309
0.549672
0.550054
0.550471
0.550924
0.551401
0.551897
0.552417
0.552976
0.553572
0.554188
0.554807
0.555417
0.556022
0.556631
0.557246
0.557874
0.558513
0.559174
0.559859
0.56057
0.561299
0.562037
0.562777
0.563514
0.564254
0.565
0.56575
0.566507
0.56727
0.568043
0.568827
0.569626
0.570437
0.571253
0.572072
0.572891
0.573709
0.574529
0.575355
0.576187
0.577027
0.577876
0.578733
0.579596
0.580464
0.581341
0.582227
0.583119
0.584013
0.584905
0.585797
0.586689
0.587585
0.588484
0.589387
0.590295
0.591208
0.592128
0.593053
0.593981
0.594909
0.595837
0.596766
0.597695
0.598621
0.599547
0.600474
0.601407
0.602346
0.603283
0.604217
0.60515
0.606086
0.607031
0.607984
0.608936
0.609884
0.610823
0.611753
0.612683
0.613615
0.614553
0.615497
0.616439
0.617382
0.618313
0.619227
0.620147
0.621069
0.622025
0.623024
0.623987
0.624906
0.62574
0.626611
0.62757
0.628596
0.629567
0.630486
0.631348
0.632156
0.63307
0.6341
0.63508
0.635992
0.636835
0.637633
0.638535
0.639533
0.640487
0.641388
0.642236
0.643041
0.643916
0.644851
0.645772
0.646672
0.647517
0.648315
0.649153
0.650045
0.650952
0.65186
0.65269
0.653446
0.654241
0.655098
0.655988
0.656912
0.657584
0.65866
0.598618
0.57881
0.492188
0.447122
0.450439
0.472542
0.495068
0.512454
0.524523
0.532441
0.537431
0.540527
0.54249
0.54381
0.544779
0.545559
0.546203
0.546686
0.547026
0.547295
0.547562
0.547853
0.548182
0.548548
0.548927
0.5493
0.549668
0.550053
0.550472
0.550923
0.551399
0.551893
0.552412
0.552971
0.553569
0.554187
0.554805
0.55541
0.55601
0.556615
0.557229
0.557859
0.5585
0.559159
0.559842
0.560552
0.561282
0.562022
0.562764
0.563502
0.564243
0.564991
0.565745
0.566506
0.567273
0.568048
0.568833
0.569634
0.570447
0.571265
0.572084
0.572901
0.573715
0.574531
0.575354
0.576185
0.577024
0.577874
0.578732
0.579595
0.580463
0.581339
0.582224
0.583114
0.584007
0.584899
0.58579
0.586682
0.587577
0.588478
0.589384
0.590295
0.591211
0.592132
0.593057
0.593984
0.594911
0.595838
0.596768
0.597697
0.598624
0.599549
0.600476
0.601408
0.602346
0.603283
0.604218
0.605152
0.60609
0.607036
0.607989
0.60894
0.609886
0.610823
0.611754
0.612686
0.613619
0.614556
0.615498
0.616439
0.617382
0.618313
0.619228
0.620146
0.621068
0.622025
0.623023
0.623988
0.624914
0.62574
0.626611
0.627571
0.628596
0.629563
0.630483
0.631348
0.632158
0.633072
0.634099
0.635077
0.635989
0.636834
0.637632
0.638533
0.63953
0.640484
0.641387
0.642235
0.643039
0.643913
0.644848
0.64577
0.64667
0.647512
0.648308
0.649149
0.650044
0.650953
0.651858
0.652685
0.653443
0.654242
0.655101
0.655988
0.656909
0.657583
0.65866
0.598837
0.578545
0.492035
0.447094
0.450444
0.472531
0.495035
0.51241
0.52448
0.532398
0.537388
0.540485
0.542452
0.543777
0.54475
0.545532
0.546179
0.546665
0.54701
0.547286
0.547561
0.547859
0.548192
0.548559
0.548935
0.549303
0.549666
0.550048
0.550467
0.55092
0.551398
0.551894
0.552414
0.552971
0.553564
0.554177
0.554792
0.5554
0.556004
0.556614
0.557233
0.557865
0.558505
0.559161
0.559842
0.560551
0.561281
0.562023
0.562766
0.563504
0.564244
0.564991
0.565743
0.566503
0.56727
0.568045
0.568831
0.569632
0.570444
0.571261
0.572079
0.572895
0.573709
0.574527
0.575353
0.576184
0.577023
0.57787
0.578726
0.57959
0.58046
0.581339
0.582224
0.583113
0.584005
0.584895
0.585786
0.586679
0.587574
0.588474
0.589379
0.590289
0.591205
0.592128
0.593055
0.593984
0.594914
0.595842
0.596772
0.5977
0.598625
0.599549
0.600476
0.60141
0.602349
0.603286
0.60422
0.605153
0.60609
0.607035
0.607988
0.60894
0.609886
0.610823
0.611754
0.612685
0.613618
0.614557
0.6155
0.616443
0.617386
0.618315
0.619228
0.620146
0.62107
0.622028
0.623027
0.623993
0.624916
0.625746
0.626612
0.62757
0.628595
0.629562
0.63048
0.631345
0.632156
0.633071
0.6341
0.635078
0.635991
0.636835
0.63763
0.638529
0.639527
0.640483
0.641387
0.642233
0.643032
0.643906
0.644846
0.645769
0.646667
0.647509
0.648304
0.649147
0.650045
0.650953
0.651854
0.652682
0.653443
0.65424
0.655096
0.655984
0.656907
0.657583
0.658661
0.598617
0.57881
0.492187
0.447122
0.450438
0.47254
0.495066
0.512451
0.524519
0.532438
0.537428
0.540525
0.542489
0.543808
0.544777
0.545557
0.546201
0.546685
0.547025
0.547294
0.54756
0.547851
0.54818
0.548547
0.548927
0.549299
0.549667
0.550051
0.550469
0.550922
0.551398
0.551893
0.552412
0.552969
0.553566
0.554184
0.554802
0.555409
0.556009
0.556614
0.557226
0.557861
0.558501
0.559158
0.559839
0.560547
0.561275
0.562014
0.562756
0.563495
0.564237
0.564985
0.56574
0.566503
0.567272
0.568047
0.568831
0.569628
0.570437
0.571253
0.572071
0.572888
0.573702
0.57452
0.575345
0.576177
0.577018
0.577868
0.578726
0.579591
0.580462
0.58134
0.582225
0.583115
0.584006
0.584897
0.585788
0.58668
0.587576
0.588476
0.589381
0.590293
0.59121
0.592133
0.593059
0.593987
0.594914
0.595842
0.596771
0.597699
0.598625
0.59955
0.600477
0.60141
0.602348
0.603285
0.604219
0.605152
0.606089
0.607035
0.607986
0.608935
0.609879
0.610817
0.611749
0.612683
0.613618
0.614556
0.615498
0.61644
0.617383
0.618314
0.619228
0.620149
0.621073
0.622029
0.623029
0.623996
0.624901
0.625758
0.626619
0.627568
0.628592
0.629561
0.630479
0.631343
0.632155
0.63307
0.634098
0.635075
0.635989
0.636833
0.637627
0.638527
0.639525
0.640484
0.641391
0.642234
0.643029
0.643901
0.644844
0.645773
0.64667
0.647504
0.648297
0.649144
0.650047
0.650955
0.651852
0.652675
0.653439
0.654245
0.655102
0.655982
0.656903
0.657582
0.658662
0.598836
0.578551
0.492039
0.447093
0.450439
0.472524
0.49503
0.512405
0.524475
0.532395
0.537385
0.540483
0.542451
0.543774
0.544746
0.545529
0.546176
0.546662
0.547007
0.547283
0.547557
0.547856
0.548189
0.548556
0.548933
0.549299
0.549661
0.550042
0.550461
0.550915
0.551392
0.551888
0.552408
0.552965
0.553558
0.554172
0.55479
0.555401
0.55601
0.556621
0.557239
0.557871
0.558509
0.559162
0.559838
0.560541
0.561265
0.562002
0.562742
0.56348
0.564221
0.56497
0.565726
0.56649
0.567262
0.568041
0.56883
0.56963
0.570441
0.571257
0.572075
0.572893
0.573709
0.574528
0.575353
0.576185
0.577024
0.57787
0.578726
0.579591
0.580461
0.58134
0.582224
0.583112
0.584004
0.584895
0.585787
0.58668
0.587576
0.588476
0.589382
0.590293
0.59121
0.592132
0.593058
0.593987
0.594916
0.595845
0.596775
0.597703
0.598628
0.599553
0.60048
0.601412
0.60235
0.603286
0.604218
0.60515
0.606086
0.607031
0.607983
0.608933
0.609877
0.610815
0.611747
0.61268
0.613614
0.614554
0.615499
0.616442
0.617384
0.618313
0.619226
0.620149
0.621077
0.622035
0.623033
0.624002
0.624897
0.625753
0.626618
0.627569
0.628591
0.629557
0.630476
0.631342
0.632156
0.633072
0.634101
0.635078
0.635993
0.636838
0.637627
0.638525
0.639524
0.640485
0.641394
0.642235
0.643026
0.643899
0.644847
0.645775
0.646667
0.647501
0.648296
0.649146
0.650052
0.650958
0.65185
0.652674
0.653443
0.654246
0.655097
0.655978
0.656902
0.657583
0.658663
0.598624
0.578726
0.492114
0.447097
0.450441
0.472546
0.495067
0.512447
0.52451
0.532426
0.537413
0.540507
0.542471
0.543789
0.544759
0.54554
0.546183
0.546666
0.547007
0.547276
0.547543
0.547835
0.548163
0.54853
0.548909
0.549281
0.549649
0.550034
0.550452
0.550905
0.55138
0.551875
0.552394
0.552953
0.55355
0.554168
0.554786
0.555394
0.555996
0.556603
0.557217
0.557853
0.558493
0.559148
0.559827
0.560534
0.56126
0.561997
0.562737
0.563473
0.564214
0.564964
0.565721
0.566486
0.567257
0.568033
0.568819
0.569619
0.57043
0.571246
0.572062
0.572877
0.57369
0.574508
0.575334
0.576168
0.57701
0.57786
0.578717
0.579581
0.58045
0.581328
0.582213
0.583104
0.583997
0.584889
0.585781
0.586673
0.587568
0.588468
0.589373
0.590285
0.591203
0.592125
0.59305
0.593978
0.594907
0.595836
0.596766
0.597695
0.598621
0.599548
0.600475
0.601407
0.602345
0.603282
0.604215
0.605148
0.606086
0.607032
0.607983
0.608931
0.609874
0.610812
0.611746
0.612681
0.613616
0.614555
0.6155
0.616442
0.617386
0.618316
0.61923
0.620153
0.621081
0.622038
0.623032
0.624063
0.624892
0.625731
0.626622
0.627572
0.628583
0.629552
0.630478
0.631348
0.632162
0.633076
0.634102
0.635078
0.635995
0.636841
0.637629
0.638525
0.639525
0.640491
0.641403
0.64224
0.643026
0.643898
0.64485
0.645783
0.646673
0.6475
0.648294
0.64915
0.65006
0.650962
0.651847
0.652671
0.653445
0.654255
0.655104
0.655977
0.6569
0.657587
0.658669
0.598836
0.57855
0.492038
0.447091
0.450437
0.472522
0.49503
0.512407
0.524476
0.532396
0.537384
0.54048
0.542449
0.543773
0.544747
0.54553
0.546175
0.546661
0.547006
0.547282
0.547557
0.547857
0.548189
0.548555
0.548932
0.549298
0.549662
0.550044
0.550463
0.550917
0.551396
0.551893
0.552414
0.552972
0.553564
0.554175
0.554787
0.555392
0.555994
0.556601
0.557216
0.557846
0.558487
0.559146
0.559828
0.560538
0.561268
0.562011
0.562757
0.5635
0.564246
0.564994
0.565744
0.566499
0.567262
0.568036
0.568823
0.569622
0.57043
0.571243
0.572059
0.572876
0.573691
0.57451
0.575336
0.576168
0.57701
0.577858
0.578714
0.579578
0.580448
0.581326
0.58221
0.5831
0.583994
0.584886
0.58578
0.586673
0.587567
0.588465
0.589369
0.59028
0.591197
0.592119
0.593045
0.593973
0.594903
0.595833
0.596765
0.597695
0.598623
0.59955
0.600478
0.601411
0.602348
0.603285
0.604217
0.60515
0.606088
0.607033
0.607986
0.608936
0.609879
0.610817
0.61175
0.612684
0.613619
0.614559
0.615505
0.616448
0.617391
0.61832
0.619233
0.620157
0.621088
0.622045
0.623042
0.624015
0.624914
0.625755
0.626622
0.627576
0.628595
0.629559
0.630479
0.631347
0.632162
0.633077
0.634105
0.635083
0.636001
0.636845
0.637628
0.638523
0.639525
0.640494
0.641408
0.642245
0.643029
0.643902
0.644858
0.64579
0.646674
0.6475
0.648297
0.649154
0.650065
0.650967
0.651849
0.652674
0.653452
0.654258
0.6551
0.655976
0.656903
0.657589
0.658669
0.598617
0.57881
0.492187
0.44712
0.450436
0.472537
0.495067
0.512454
0.524521
0.53244
0.537428
0.540522
0.542487
0.543807
0.544779
0.54556
0.546204
0.546687
0.547028
0.547298
0.547566
0.547859
0.548186
0.548551
0.54893
0.549302
0.549672
0.550059
0.550478
0.550931
0.551408
0.551903
0.552422
0.552977
0.553568
0.55418
0.554796
0.555406
0.556014
0.556624
0.557241
0.55787
0.558511
0.559172
0.559857
0.560566
0.561291
0.562024
0.562758
0.563491
0.564231
0.56498
0.565737
0.5665
0.56727
0.568046
0.568833
0.569631
0.570439
0.571251
0.572066
0.57288
0.573694
0.574512
0.575338
0.576172
0.577015
0.577865
0.57872
0.579581
0.580449
0.581325
0.582211
0.583104
0.584
0.584894
0.585787
0.586678
0.587571
0.588468
0.589373
0.590283
0.591201
0.592122
0.593047
0.593975
0.594905
0.595837
0.596771
0.597703
0.598631
0.599558
0.600484
0.601415
0.602351
0.603286
0.604219
0.605153
0.606092
0.607038
0.607989
0.608936
0.609879
0.610817
0.611751
0.612687
0.613623
0.614563
0.615508
0.616451
0.617394
0.618324
0.619237
0.620162
0.621091
0.622048
0.623044
0.624001
0.624918
0.625747
0.626619
0.627579
0.628599
0.629562
0.630481
0.631349
0.632164
0.63308
0.634105
0.635083
0.636002
0.636846
0.637628
0.638522
0.639526
0.640498
0.641414
0.642247
0.643029
0.643902
0.644862
0.645795
0.646675
0.647497
0.648298
0.649165
0.650076
0.650967
0.651842
0.652673
0.653461
0.654271
0.655106
0.65597
0.656901
0.657598
0.658679
0.598837
0.578542
0.492025
0.447083
0.450435