/*--------------------------------*- C++ -*----------------------------------*\
  =========                 |
  \\      /  F ield         | OpenFOAM: The Open Source CFD Toolbox
   \\    /   O peration     | Website:  https://openfoam.org
    \\  /    A nd           | Version:  9
     \\/     M anipulation  |
\*---------------------------------------------------------------------------*/
FoamFile
{
    format      ascii;
    class       volScalarField;
    location    "1200";
    object      nut;
}
// * * * * * * * * * * * * * * * * * * * * * * * * * * * * * * * * * * * * * //

dimensions      [0 2 -1 0 0 0 0];

internalField   nonuniform List<scalar> 
329700
(
3.88864e-05
3.2434e-05
2.67257e-05
2.55546e-05
2.83606e-05
3.31764e-05
3.84678e-05
4.33394e-05
4.74378e-05
5.07095e-05
5.32447e-05
5.51824e-05
5.66706e-05
5.78437e-05
5.88047e-05
5.96147e-05
6.03132e-05
6.09244e-05
6.14462e-05
6.18901e-05
6.22744e-05
6.26148e-05
6.29216e-05
6.32132e-05
6.34925e-05
6.37529e-05
6.39914e-05
6.42118e-05
6.44186e-05
6.46139e-05
6.47982e-05
6.49724e-05
6.51381e-05
6.52981e-05
6.54555e-05
6.56107e-05
6.57612e-05
6.59052e-05
6.60426e-05
6.61732e-05
6.62974e-05
6.6417e-05
6.65333e-05
6.66481e-05
6.67619e-05
6.68755e-05
6.69886e-05
6.71002e-05
6.72091e-05
6.7315e-05
6.74188e-05
6.75209e-05
6.76209e-05
6.77189e-05
6.78152e-05
6.79101e-05
6.80043e-05
6.80987e-05
6.81929e-05
6.82864e-05
6.83791e-05
6.84702e-05
6.85595e-05
6.86475e-05
6.87346e-05
6.88205e-05
6.89056e-05
6.89907e-05
6.9076e-05
6.91618e-05
6.92477e-05
6.93342e-05
6.94213e-05
6.95081e-05
6.9594e-05
6.96786e-05
6.97621e-05
6.98446e-05
6.99266e-05
7.00079e-05
7.00887e-05
7.01694e-05
7.02503e-05
7.03316e-05
7.04127e-05
7.04931e-05
7.05728e-05
7.06526e-05
7.07334e-05
7.08142e-05
7.08938e-05
7.09715e-05
7.10475e-05
7.11239e-05
7.12011e-05
7.12782e-05
7.13542e-05
7.1429e-05
7.15035e-05
7.15791e-05
7.16564e-05
7.17342e-05
7.18115e-05
7.18865e-05
7.19587e-05
7.20289e-05
7.20977e-05
7.21686e-05
7.22432e-05
7.23203e-05
7.23984e-05
7.24715e-05
7.25365e-05
7.25982e-05
7.26584e-05
7.273e-05
7.28182e-05
7.2904e-05
7.2977e-05
7.30313e-05
7.30777e-05
7.31345e-05
7.32141e-05
7.33045e-05
7.3391e-05
7.34508e-05
7.34833e-05
7.35281e-05
7.36031e-05
7.36961e-05
7.37883e-05
7.38463e-05
7.38686e-05
7.39104e-05
7.39906e-05
7.40818e-05
7.41649e-05
7.4217e-05
7.42416e-05
7.42868e-05
7.43627e-05
7.44426e-05
7.45121e-05
7.45611e-05
7.45986e-05
7.4648e-05
7.47098e-05
7.47746e-05
7.4844e-05
7.49044e-05
7.49495e-05
7.49868e-05
7.5022e-05
7.50814e-05
7.51627e-05
7.52359e-05
7.52245e-05
3.8913e-05
3.2457e-05
2.67294e-05
2.55465e-05
2.835e-05
3.31685e-05
3.84635e-05
4.33383e-05
4.74388e-05
5.07118e-05
5.32482e-05
5.51864e-05
5.66743e-05
5.78471e-05
5.88076e-05
5.96172e-05
6.03153e-05
6.09258e-05
6.14469e-05
6.18907e-05
6.22748e-05
6.26147e-05
6.29212e-05
6.3213e-05
6.3493e-05
6.3754e-05
6.39926e-05
6.42122e-05
6.4418e-05
6.46127e-05
6.4797e-05
6.49717e-05
6.51383e-05
6.52992e-05
6.54576e-05
6.56132e-05
6.57633e-05
6.5906e-05
6.60417e-05
6.61711e-05
6.62949e-05
6.64148e-05
6.65315e-05
6.66464e-05
6.67602e-05
6.68739e-05
6.69876e-05
6.70999e-05
6.72092e-05
6.73148e-05
6.74176e-05
6.75188e-05
6.76186e-05
6.77172e-05
6.78144e-05
6.79097e-05
6.80038e-05
6.80978e-05
6.81919e-05
6.82856e-05
6.83783e-05
6.84691e-05
6.85579e-05
6.86457e-05
6.87331e-05
6.882e-05
6.8906e-05
6.89914e-05
6.90763e-05
6.91616e-05
6.92475e-05
6.93345e-05
6.94221e-05
6.9509e-05
6.95945e-05
6.96789e-05
6.97625e-05
6.98455e-05
6.99277e-05
7.00089e-05
7.00894e-05
7.01698e-05
7.02506e-05
7.03319e-05
7.0413e-05
7.04934e-05
7.0573e-05
7.06526e-05
7.07331e-05
7.08139e-05
7.08935e-05
7.09712e-05
7.10474e-05
7.11238e-05
7.12011e-05
7.12782e-05
7.13541e-05
7.14289e-05
7.15033e-05
7.15789e-05
7.16562e-05
7.17339e-05
7.18112e-05
7.18862e-05
7.19586e-05
7.20293e-05
7.20987e-05
7.21697e-05
7.2244e-05
7.23206e-05
7.23986e-05
7.24719e-05
7.25373e-05
7.25989e-05
7.2659e-05
7.27303e-05
7.28181e-05
7.29048e-05
7.29768e-05
7.3033e-05
7.30801e-05
7.31361e-05
7.32154e-05
7.33059e-05
7.33919e-05
7.34507e-05
7.34826e-05
7.35279e-05
7.3603e-05
7.36951e-05
7.37867e-05
7.38456e-05
7.38701e-05
7.39127e-05
7.39919e-05
7.40814e-05
7.41638e-05
7.42166e-05
7.42425e-05
7.42878e-05
7.43624e-05
7.44417e-05
7.45119e-05
7.45616e-05
7.45994e-05
7.46484e-05
7.47098e-05
7.47747e-05
7.48445e-05
7.49049e-05
7.49494e-05
7.49869e-05
7.50233e-05
7.50829e-05
7.51633e-05
7.52359e-05
7.52246e-05
3.88913e-05
3.2433e-05
2.67224e-05
2.55511e-05
2.83579e-05
3.31755e-05
3.8468e-05
4.33401e-05
4.74384e-05
5.07096e-05
5.32447e-05
5.51828e-05
5.66714e-05
5.78448e-05
5.88052e-05
5.96145e-05
6.03121e-05
6.09219e-05
6.14426e-05
6.18863e-05
6.22708e-05
6.26112e-05
6.2918e-05
6.32096e-05
6.34894e-05
6.37505e-05
6.39893e-05
6.42094e-05
6.44156e-05
6.46105e-05
6.47948e-05
6.49692e-05
6.51358e-05
6.52969e-05
6.54554e-05
6.56112e-05
6.57612e-05
6.59036e-05
6.60389e-05
6.6168e-05
6.62917e-05
6.64117e-05
6.65288e-05
6.66443e-05
6.67588e-05
6.68734e-05
6.69877e-05
6.71002e-05
6.72091e-05
6.73143e-05
6.7417e-05
6.75182e-05
6.76182e-05
6.77168e-05
6.78137e-05
6.79088e-05
6.80027e-05
6.80967e-05
6.81907e-05
6.82845e-05
6.83774e-05
6.84685e-05
6.85578e-05
6.86458e-05
6.87332e-05
6.88198e-05
6.89057e-05
6.89912e-05
6.90765e-05
6.91623e-05
6.92485e-05
6.93356e-05
6.94231e-05
6.95099e-05
6.95955e-05
6.968e-05
6.97636e-05
6.98464e-05
6.99284e-05
7.00096e-05
7.00902e-05
7.01705e-05
7.02512e-05
7.03321e-05
7.0413e-05
7.04933e-05
7.05729e-05
7.06527e-05
7.07335e-05
7.08144e-05
7.08941e-05
7.09719e-05
7.10481e-05
7.11246e-05
7.12021e-05
7.12794e-05
7.13554e-05
7.14301e-05
7.15043e-05
7.15798e-05
7.1657e-05
7.17348e-05
7.18121e-05
7.18874e-05
7.19601e-05
7.20305e-05
7.20995e-05
7.21702e-05
7.22445e-05
7.23219e-05
7.24004e-05
7.24736e-05
7.25385e-05
7.25986e-05
7.26585e-05
7.27309e-05
7.28193e-05
7.29065e-05
7.29788e-05
7.3032e-05
7.30783e-05
7.31341e-05
7.32164e-05
7.33077e-05
7.33933e-05
7.3452e-05
7.34808e-05
7.35255e-05
7.36043e-05
7.36978e-05
7.37887e-05
7.38457e-05
7.38697e-05
7.39121e-05
7.39915e-05
7.40822e-05
7.41646e-05
7.42166e-05
7.42422e-05
7.42874e-05
7.43622e-05
7.44424e-05
7.45129e-05
7.4562e-05
7.45991e-05
7.46479e-05
7.47095e-05
7.47753e-05
7.48456e-05
7.49052e-05
7.49487e-05
7.49855e-05
7.50225e-05
7.50835e-05
7.51639e-05
7.52354e-05
7.52236e-05
3.88768e-05
3.24065e-05
2.67137e-05
2.5557e-05
2.8369e-05
3.31852e-05
3.8474e-05
4.33428e-05
4.74385e-05
5.07078e-05
5.32418e-05
5.51789e-05
5.66664e-05
5.78393e-05
5.88001e-05
5.961e-05
6.03082e-05
6.09185e-05
6.14398e-05
6.18842e-05
6.2269e-05
6.26094e-05
6.29163e-05
6.32079e-05
6.34876e-05
6.37484e-05
6.39869e-05
6.42066e-05
6.44127e-05
6.46076e-05
6.4792e-05
6.49666e-05
6.51331e-05
6.52937e-05
6.54517e-05
6.5607e-05
6.57571e-05
6.59004e-05
6.60371e-05
6.61676e-05
6.62924e-05
6.6413e-05
6.65301e-05
6.66452e-05
6.67591e-05
6.68729e-05
6.69864e-05
6.70985e-05
6.72077e-05
6.73136e-05
6.7417e-05
6.75186e-05
6.76186e-05
6.77172e-05
6.78145e-05
6.79101e-05
6.80044e-05
6.80987e-05
6.8193e-05
6.82866e-05
6.8379e-05
6.84694e-05
6.85581e-05
6.86461e-05
6.8734e-05
6.88211e-05
6.89074e-05
6.89932e-05
6.90786e-05
6.91643e-05
6.92505e-05
6.93373e-05
6.94244e-05
6.95107e-05
6.9596e-05
6.96805e-05
6.97643e-05
6.9847e-05
6.99287e-05
7.00096e-05
7.00901e-05
7.01705e-05
7.02514e-05
7.03326e-05
7.04136e-05
7.0494e-05
7.05736e-05
7.06533e-05
7.07342e-05
7.08152e-05
7.08949e-05
7.09724e-05
7.10483e-05
7.11249e-05
7.12027e-05
7.12803e-05
7.13564e-05
7.14309e-05
7.1505e-05
7.15804e-05
7.16576e-05
7.17356e-05
7.18131e-05
7.18884e-05
7.1961e-05
7.20314e-05
7.21003e-05
7.21709e-05
7.22452e-05
7.23227e-05
7.24013e-05
7.24745e-05
7.25392e-05
7.25987e-05
7.26583e-05
7.27309e-05
7.28198e-05
7.29071e-05
7.29784e-05
7.30337e-05
7.30798e-05
7.31344e-05
7.32176e-05
7.33091e-05
7.33948e-05
7.34528e-05
7.34792e-05
7.3524e-05
7.36044e-05
7.36975e-05
7.3788e-05
7.38459e-05
7.38708e-05
7.39132e-05
7.39918e-05
7.40814e-05
7.41638e-05
7.42169e-05
7.42431e-05
7.42879e-05
7.43616e-05
7.44415e-05
7.45131e-05
7.45629e-05
7.45996e-05
7.46476e-05
7.47091e-05
7.47753e-05
7.48462e-05
7.49056e-05
7.49481e-05
7.49855e-05
7.50243e-05
7.50852e-05
7.51645e-05
7.52353e-05
7.52232e-05
3.8912e-05
3.24524e-05
2.67247e-05
2.55409e-05
2.8345e-05
3.31653e-05
3.84618e-05
4.33377e-05
4.74386e-05
5.07115e-05
5.32476e-05
5.51852e-05
5.66723e-05
5.78451e-05
5.88058e-05
5.96153e-05
6.03128e-05
6.09221e-05
6.14422e-05
6.18856e-05
6.22699e-05
6.261e-05
6.29166e-05
6.32079e-05
6.34877e-05
6.37492e-05
6.39889e-05
6.421e-05
6.44171e-05
6.46124e-05
6.47968e-05
6.49714e-05
6.51379e-05
6.52988e-05
6.54567e-05
6.56112e-05
6.57597e-05
6.5901e-05
6.60361e-05
6.61659e-05
6.6291e-05
6.64126e-05
6.6531e-05
6.66472e-05
6.67618e-05
6.68756e-05
6.69882e-05
6.70994e-05
6.72079e-05
6.73134e-05
6.74166e-05
6.75179e-05
6.76177e-05
6.77163e-05
6.78132e-05
6.79083e-05
6.80022e-05
6.80964e-05
6.81907e-05
6.82843e-05
6.83766e-05
6.84672e-05
6.85562e-05
6.86446e-05
6.87324e-05
6.88195e-05
6.89061e-05
6.89921e-05
6.90777e-05
6.91634e-05
6.92496e-05
6.93366e-05
6.94238e-05
6.95103e-05
6.95957e-05
6.96801e-05
6.97637e-05
6.98463e-05
6.9928e-05
7.00091e-05
7.00899e-05
7.01705e-05
7.02513e-05
7.03323e-05
7.04133e-05
7.04937e-05
7.05736e-05
7.06535e-05
7.07341e-05
7.08149e-05
7.08945e-05
7.09722e-05
7.10484e-05
7.1125e-05
7.12028e-05
7.12805e-05
7.13567e-05
7.14314e-05
7.15055e-05
7.1581e-05
7.16583e-05
7.17363e-05
7.18138e-05
7.1889e-05
7.19615e-05
7.20318e-05
7.21005e-05
7.2171e-05
7.22451e-05
7.23224e-05
7.2401e-05
7.24745e-05
7.25393e-05
7.2599e-05
7.26584e-05
7.27308e-05
7.28199e-05
7.29076e-05
7.29784e-05
7.30326e-05
7.30792e-05
7.31337e-05
7.32178e-05
7.33104e-05
7.33963e-05
7.34531e-05
7.3478e-05
7.35229e-05
7.36048e-05
7.36993e-05
7.37892e-05
7.38452e-05
7.38698e-05
7.3913e-05
7.39921e-05
7.4082e-05
7.41639e-05
7.42165e-05
7.42431e-05
7.42884e-05
7.43616e-05
7.4441e-05
7.45131e-05
7.45639e-05
7.46007e-05
7.46477e-05
7.47083e-05
7.47751e-05
7.48473e-05
7.4907e-05
7.49485e-05
7.49838e-05
7.50225e-05
7.50855e-05
7.51655e-05
7.52354e-05
7.52227e-05
3.88771e-05
3.24072e-05
2.67136e-05
2.55563e-05
2.83681e-05
3.31844e-05
3.84734e-05
4.33425e-05
4.74384e-05
5.07077e-05
5.32416e-05
5.51785e-05
5.66658e-05
5.78389e-05
5.87999e-05
5.96101e-05
6.03085e-05
6.09188e-05
6.144e-05
6.18843e-05
6.22692e-05
6.26097e-05
6.29166e-05
6.3208e-05
6.34876e-05
6.37483e-05
6.39868e-05
6.42067e-05
6.4413e-05
6.46081e-05
6.47926e-05
6.49673e-05
6.5134e-05
6.52948e-05
6.54529e-05
6.56081e-05
6.57576e-05
6.59e-05
6.60359e-05
6.61662e-05
6.62916e-05
6.64131e-05
6.65304e-05
6.66448e-05
6.67578e-05
6.68709e-05
6.69844e-05
6.70967e-05
6.72061e-05
6.73116e-05
6.74145e-05
6.75158e-05
6.76162e-05
6.77154e-05
6.78127e-05
6.79078e-05
6.80016e-05
6.80955e-05
6.81899e-05
6.82841e-05
6.8377e-05
6.84677e-05
6.85564e-05
6.86442e-05
6.87317e-05
6.88187e-05
6.89052e-05
6.89913e-05
6.90772e-05
6.91632e-05
6.92495e-05
6.93363e-05
6.94234e-05
6.951e-05
6.95957e-05
6.96803e-05
6.97639e-05
6.98462e-05
6.99278e-05
7.0009e-05
7.009e-05
7.01707e-05
7.02514e-05
7.03322e-05
7.04131e-05
7.04935e-05
7.05733e-05
7.06533e-05
7.07341e-05
7.08149e-05
7.08943e-05
7.09717e-05
7.10479e-05
7.11247e-05
7.12028e-05
7.12808e-05
7.13572e-05
7.14318e-05
7.15057e-05
7.15809e-05
7.1658e-05
7.17359e-05
7.18135e-05
7.18888e-05
7.19613e-05
7.20316e-05
7.21004e-05
7.21709e-05
7.2245e-05
7.23223e-05
7.24008e-05
7.24743e-05
7.25392e-05
7.2599e-05
7.26584e-05
7.27307e-05
7.28199e-05
7.29076e-05
7.29785e-05
7.30318e-05
7.30773e-05
7.31327e-05
7.32181e-05
7.33106e-05
7.33961e-05
7.3453e-05
7.3478e-05
7.35234e-05
7.36058e-05
7.36995e-05
7.37886e-05
7.38447e-05
7.38701e-05
7.39137e-05
7.39925e-05
7.40815e-05
7.41628e-05
7.42161e-05
7.42441e-05
7.42897e-05
7.43617e-05
7.44404e-05
7.45131e-05
7.45647e-05
7.46015e-05
7.46481e-05
7.47081e-05
7.47748e-05
7.48477e-05
7.49074e-05
7.49481e-05
7.49839e-05
7.50242e-05
7.50873e-05
7.51664e-05
7.52355e-05
7.52223e-05
3.88919e-05
3.24331e-05
2.67216e-05
2.55492e-05
2.83557e-05
3.31735e-05
3.84666e-05
4.33392e-05
4.74381e-05
5.07093e-05
5.32443e-05
5.51822e-05
5.66706e-05
5.78443e-05
5.88053e-05
5.96149e-05
6.03125e-05
6.09219e-05
6.14422e-05
6.1886e-05
6.22708e-05
6.26114e-05
6.29183e-05
6.32096e-05
6.34891e-05
6.375e-05
6.39889e-05
6.42093e-05
6.44158e-05
6.46107e-05
6.47948e-05
6.49691e-05
6.51356e-05
6.52967e-05
6.54556e-05
6.56115e-05
6.57617e-05
6.59041e-05
6.60392e-05
6.61682e-05
6.6292e-05
6.6412e-05
6.6529e-05
6.66444e-05
6.67589e-05
6.68733e-05
6.69871e-05
6.7099e-05
6.72078e-05
6.73133e-05
6.74165e-05
6.75181e-05
6.76182e-05
6.77167e-05
6.78135e-05
6.79084e-05
6.80026e-05
6.80972e-05
6.81917e-05
6.82854e-05
6.83777e-05
6.84682e-05
6.85571e-05
6.86454e-05
6.87332e-05
6.882e-05
6.89062e-05
6.8992e-05
6.90778e-05
6.91638e-05
6.92502e-05
6.9337e-05
6.94239e-05
6.95103e-05
6.9596e-05
6.96808e-05
6.97648e-05
6.98475e-05
6.9929e-05
7.00099e-05
7.00907e-05
7.01713e-05
7.0252e-05
7.0333e-05
7.04139e-05
7.04942e-05
7.05737e-05
7.06536e-05
7.07344e-05
7.08152e-05
7.08946e-05
7.09719e-05
7.10479e-05
7.11245e-05
7.12024e-05
7.12802e-05
7.13567e-05
7.14314e-05
7.15055e-05
7.15807e-05
7.16576e-05
7.17354e-05
7.18129e-05
7.18881e-05
7.19609e-05
7.20314e-05
7.21004e-05
7.21708e-05
7.22445e-05
7.23214e-05
7.23999e-05
7.24737e-05
7.25391e-05
7.25991e-05
7.26584e-05
7.27303e-05
7.28193e-05
7.29069e-05
7.29791e-05
7.3032e-05
7.30753e-05
7.31317e-05
7.32179e-05
7.33109e-05
7.33966e-05
7.34535e-05
7.34783e-05
7.35232e-05
7.36056e-05
7.36995e-05
7.37883e-05
7.38443e-05
7.38701e-05
7.39142e-05
7.39929e-05
7.40811e-05
7.41619e-05
7.42156e-05
7.42446e-05
7.42904e-05
7.43613e-05
7.44391e-05
7.45124e-05
7.45657e-05
7.46031e-05
7.46482e-05
7.47069e-05
7.47745e-05
7.4849e-05
7.4909e-05
7.49481e-05
7.49819e-05
7.50227e-05
7.50882e-05
7.51677e-05
7.52353e-05
7.52212e-05
3.89112e-05
3.24512e-05
2.67242e-05
2.55424e-05
2.83472e-05
3.31671e-05
3.8463e-05
4.33382e-05
4.74386e-05
5.07113e-05
5.32472e-05
5.51848e-05
5.66722e-05
5.78452e-05
5.88064e-05
5.96166e-05
6.03146e-05
6.09245e-05
6.14453e-05
6.18891e-05
6.22736e-05
6.26138e-05
6.29204e-05
6.32117e-05
6.34911e-05
6.3752e-05
6.39908e-05
6.42108e-05
6.44169e-05
6.46116e-05
6.47957e-05
6.497e-05
6.51364e-05
6.52974e-05
6.54561e-05
6.56121e-05
6.57624e-05
6.59051e-05
6.60406e-05
6.61699e-05
6.62939e-05
6.6414e-05
6.65305e-05
6.6645e-05
6.67589e-05
6.68731e-05
6.6987e-05
6.70992e-05
6.72082e-05
6.73138e-05
6.74167e-05
6.7518e-05
6.76181e-05
6.77169e-05
6.7814e-05
6.79092e-05
6.80033e-05
6.80974e-05
6.81915e-05
6.82851e-05
6.83779e-05
6.8469e-05
6.85581e-05
6.86459e-05
6.87331e-05
6.88196e-05
6.89059e-05
6.89919e-05
6.90775e-05
6.9163e-05
6.92488e-05
6.93355e-05
6.94227e-05
6.95096e-05
6.95956e-05
6.96803e-05
6.97638e-05
6.98461e-05
6.99273e-05
7.00083e-05
7.00892e-05
7.017e-05
7.0251e-05
7.03321e-05
7.0413e-05
7.04933e-05
7.05731e-05
7.06532e-05
7.07341e-05
7.08148e-05
7.08941e-05
7.09714e-05
7.10474e-05
7.11241e-05
7.1202e-05
7.12799e-05
7.13562e-05
7.14306e-05
7.15043e-05
7.15793e-05
7.16564e-05
7.17345e-05
7.18122e-05
7.18875e-05
7.19601e-05
7.20306e-05
7.21e-05
7.21709e-05
7.22448e-05
7.23216e-05
7.23999e-05
7.24737e-05
7.25391e-05
7.25989e-05
7.26582e-05
7.27301e-05
7.28191e-05
7.29067e-05
7.29773e-05
7.30314e-05
7.30737e-05
7.31307e-05
7.32183e-05
7.33111e-05
7.33958e-05
7.34524e-05
7.34781e-05
7.35241e-05
7.36072e-05
7.37005e-05
7.37878e-05
7.3843e-05
7.38695e-05
7.39144e-05
7.3993e-05
7.40805e-05
7.41605e-05
7.42149e-05
7.42456e-05
7.42918e-05
7.43613e-05
7.44384e-05
7.45123e-05
7.45662e-05
7.46036e-05
7.46483e-05
7.47062e-05
7.47737e-05
7.48491e-05
7.49091e-05
7.49473e-05
7.49816e-05
7.50239e-05
7.50894e-05
7.51681e-05
7.52351e-05
7.52208e-05
3.88769e-05
3.24087e-05
2.67156e-05
2.55579e-05
2.83691e-05
3.31848e-05
3.84738e-05
4.33425e-05
4.74381e-05
5.07076e-05
5.32414e-05
5.51785e-05
5.66662e-05
5.78391e-05
5.88002e-05
5.96107e-05
6.0309e-05
6.092e-05
6.14417e-05
6.18861e-05
6.22712e-05
6.26119e-05
6.29185e-05
6.32095e-05
6.34883e-05
6.37485e-05
6.39874e-05
6.4208e-05
6.44148e-05
6.46099e-05
6.47938e-05
6.49675e-05
6.51334e-05
6.5294e-05
6.54525e-05
6.56085e-05
6.57594e-05
6.59032e-05
6.604e-05
6.61704e-05
6.6295e-05
6.64151e-05
6.65308e-05
6.66449e-05
6.67587e-05
6.68732e-05
6.69874e-05
6.70996e-05
6.72086e-05
6.73141e-05
6.74172e-05
6.7519e-05
6.76192e-05
6.77177e-05
6.78141e-05
6.79088e-05
6.80029e-05
6.80976e-05
6.81923e-05
6.82861e-05
6.83783e-05
6.84684e-05
6.85566e-05
6.8644e-05
6.87311e-05
6.88179e-05
6.89043e-05
6.89905e-05
6.90763e-05
6.91621e-05
6.92479e-05
6.93343e-05
6.9421e-05
6.95075e-05
6.95936e-05
6.96786e-05
6.97624e-05
6.98448e-05
6.99261e-05
7.0007e-05
7.00877e-05
7.01683e-05
7.02493e-05
7.03306e-05
7.04118e-05
7.04924e-05
7.05723e-05
7.06526e-05
7.07337e-05
7.08147e-05
7.08942e-05
7.09718e-05
7.10479e-05
7.11244e-05
7.1202e-05
7.12794e-05
7.13555e-05
7.14301e-05
7.1504e-05
7.15791e-05
7.16561e-05
7.1734e-05
7.18116e-05
7.18871e-05
7.196e-05
7.20309e-05
7.21005e-05
7.21713e-05
7.2245e-05
7.23216e-05
7.23996e-05
7.24733e-05
7.25391e-05
7.25994e-05
7.26587e-05
7.27305e-05
7.28191e-05
7.29063e-05
7.29758e-05
7.30321e-05
7.30742e-05
7.31309e-05
7.32184e-05
7.33112e-05
7.33961e-05
7.34526e-05
7.34782e-05
7.35242e-05
7.36074e-05
7.37004e-05
7.37868e-05
7.38422e-05
7.38696e-05
7.39156e-05
7.39943e-05
7.40799e-05
7.41588e-05
7.42139e-05
7.42462e-05
7.42927e-05
7.4361e-05
7.44366e-05
7.45108e-05
7.45669e-05
7.46054e-05
7.46485e-05
7.47047e-05
7.47732e-05
7.48505e-05
7.49107e-05
7.49471e-05
7.49793e-05
7.50223e-05
7.50906e-05
7.51697e-05
7.52344e-05
7.52191e-05
3.8891e-05
3.24331e-05
2.67232e-05
2.55515e-05
2.8358e-05
3.31753e-05
3.8468e-05
4.33402e-05
4.74386e-05
5.071e-05
5.32448e-05
5.51824e-05
5.66706e-05
5.78434e-05
5.88042e-05
5.96141e-05
6.03125e-05
6.09237e-05
6.14455e-05
6.18898e-05
6.22742e-05
6.26138e-05
6.29194e-05
6.32102e-05
6.34894e-05
6.37503e-05
6.39896e-05
6.421e-05
6.44165e-05
6.46116e-05
6.47962e-05
6.49709e-05
6.51377e-05
6.5299e-05
6.54577e-05
6.56138e-05
6.57642e-05
6.59071e-05
6.60429e-05
6.61725e-05
6.62967e-05
6.64168e-05
6.65331e-05
6.66473e-05
6.67607e-05
6.68741e-05
6.69873e-05
6.70993e-05
6.72086e-05
6.73144e-05
6.74175e-05
6.75188e-05
6.76185e-05
6.77168e-05
6.78135e-05
6.79086e-05
6.80031e-05
6.80977e-05
6.8192e-05
6.82854e-05
6.83776e-05
6.84681e-05
6.85569e-05
6.86447e-05
6.87318e-05
6.88184e-05
6.89051e-05
6.89917e-05
6.9078e-05
6.91636e-05
6.92489e-05
6.93349e-05
6.94216e-05
6.95084e-05
6.95944e-05
6.96792e-05
6.97628e-05
6.98451e-05
6.99263e-05
7.0007e-05
7.00877e-05
7.01685e-05
7.02498e-05
7.03313e-05
7.04127e-05
7.04933e-05
7.05733e-05
7.06536e-05
7.07348e-05
7.08156e-05
7.08949e-05
7.09722e-05
7.10483e-05
7.11248e-05
7.12024e-05
7.12797e-05
7.13558e-05
7.14305e-05
7.15043e-05
7.15794e-05
7.16563e-05
7.17343e-05
7.18119e-05
7.18871e-05
7.19596e-05
7.20306e-05
7.21007e-05
7.21721e-05
7.22459e-05
7.23217e-05
7.23989e-05
7.24723e-05
7.25385e-05
7.25999e-05
7.26596e-05
7.27313e-05
7.28189e-05
7.29072e-05
7.29763e-05
7.30303e-05
7.30724e-05
7.31304e-05
7.32181e-05
7.33103e-05
7.33946e-05
7.34516e-05
7.34785e-05
7.35255e-05
7.36093e-05
7.37019e-05
7.37867e-05
7.38408e-05
7.38683e-05
7.39154e-05
7.39946e-05
7.40801e-05
7.41579e-05
7.42127e-05
7.42464e-05
7.4294e-05
7.43616e-05
7.44364e-05
7.45104e-05
7.45666e-05
7.46054e-05
7.46486e-05
7.47041e-05
7.47719e-05
7.48496e-05
7.49103e-05
7.49466e-05
7.49791e-05
7.50229e-05
7.50911e-05
7.51697e-05
7.52342e-05
7.52187e-05
3.89134e-05
3.24593e-05
2.6731e-05
2.55467e-05
2.83494e-05
3.31677e-05
3.84629e-05
4.3338e-05
4.74387e-05
5.07121e-05
5.32483e-05
5.51863e-05
5.66743e-05
5.78471e-05
5.88081e-05
5.96181e-05
6.0316e-05
6.09264e-05
6.14475e-05
6.18912e-05
6.22754e-05
6.26155e-05
6.29219e-05
6.32135e-05
6.34931e-05
6.37538e-05
6.39925e-05
6.42125e-05
6.44187e-05
6.46137e-05
6.47981e-05
6.49725e-05
6.51387e-05
6.52994e-05
6.54579e-05
6.56137e-05
6.5764e-05
6.59069e-05
6.60428e-05
6.61725e-05
6.62971e-05
6.64169e-05
6.6533e-05
6.66474e-05
6.67611e-05
6.6875e-05
6.69885e-05
6.71005e-05
6.72095e-05
6.7315e-05
6.7418e-05
6.75193e-05
6.76189e-05
6.7717e-05
6.78136e-05
6.79087e-05
6.8003e-05
6.80973e-05
6.81917e-05
6.82856e-05
6.83784e-05
6.84691e-05
6.85576e-05
6.86446e-05
6.87311e-05
6.88174e-05
6.89038e-05
6.89903e-05
6.90768e-05
6.9163e-05
6.9249e-05
6.93355e-05
6.94221e-05
6.95084e-05
6.95941e-05
6.96788e-05
6.97625e-05
6.98448e-05
6.99261e-05
7.00068e-05
7.00875e-05
7.01683e-05
7.02495e-05
7.0331e-05
7.04127e-05
7.04937e-05
7.05738e-05
7.06539e-05
7.07345e-05
7.0815e-05
7.08943e-05
7.09719e-05
7.1048e-05
7.11244e-05
7.12018e-05
7.12791e-05
7.13553e-05
7.143e-05
7.15041e-05
7.15794e-05
7.16565e-05
7.17344e-05
7.18119e-05
7.18871e-05
7.19596e-05
7.20308e-05
7.2101e-05
7.21723e-05
7.22458e-05
7.23212e-05
7.23981e-05
7.24715e-05
7.25379e-05
7.26003e-05
7.26604e-05
7.27318e-05
7.28185e-05
7.29254e-05
7.29778e-05
7.302e-05
7.30676e-05
7.31302e-05
7.32175e-05
7.3309e-05
7.33946e-05
7.34524e-05
7.34792e-05
7.35257e-05
7.36091e-05
7.37011e-05
7.37852e-05
7.384e-05
7.38685e-05
7.39164e-05
7.39958e-05
7.40795e-05
7.41562e-05
7.42119e-05
7.42469e-05
7.4295e-05
7.43619e-05
7.44351e-05
7.45089e-05
7.45666e-05
7.46064e-05
7.46489e-05
7.47035e-05
7.47716e-05
7.48501e-05
7.49109e-05
7.49465e-05
7.4978e-05
7.50222e-05
7.50915e-05
7.51701e-05
7.52337e-05
7.52179e-05
3.88885e-05
3.24346e-05
2.67257e-05
2.55546e-05
2.83606e-05
3.31765e-05
3.84679e-05
4.33395e-05
4.7438e-05
5.07099e-05
5.32449e-05
5.51824e-05
5.66705e-05
5.78436e-05
5.8805e-05
5.96154e-05
6.03138e-05
6.09248e-05
6.14465e-05
6.18906e-05
6.22751e-05
6.26155e-05
6.29223e-05
6.32139e-05
6.34931e-05
6.37534e-05
6.3992e-05
6.42122e-05
6.4419e-05
6.46144e-05
6.47986e-05
6.49724e-05
6.51377e-05
6.5297e-05
6.54542e-05
6.56096e-05
6.57609e-05
6.59059e-05
6.60441e-05
6.61755e-05
6.63003e-05
6.64201e-05
6.6536e-05
6.66503e-05
6.67637e-05
6.68772e-05
6.69903e-05
6.71022e-05
6.72114e-05
6.73171e-05
6.74204e-05
6.75219e-05
6.76215e-05
6.77195e-05
6.78155e-05
6.79101e-05
6.80041e-05
6.80985e-05
6.81928e-05
6.82863e-05
6.83787e-05
6.84693e-05
6.85584e-05
6.86462e-05
6.87329e-05
6.88189e-05
6.89048e-05
6.89909e-05
6.90773e-05
6.91631e-05
6.92485e-05
6.93345e-05
6.94213e-05
6.95083e-05
6.95945e-05
6.96791e-05
6.97623e-05
6.98443e-05
6.99259e-05
7.00073e-05
7.00884e-05
7.01691e-05
7.025e-05
7.03311e-05
7.04125e-05
7.04936e-05
7.05739e-05
7.06542e-05
7.07348e-05
7.08149e-05
7.08937e-05
7.09709e-05
7.1047e-05
7.11235e-05
7.12012e-05
7.12786e-05
7.1355e-05
7.143e-05
7.15042e-05
7.15794e-05
7.16565e-05
7.17343e-05
7.18119e-05
7.1887e-05
7.19595e-05
7.20307e-05
7.21011e-05
7.21727e-05
7.22462e-05
7.2321e-05
7.23973e-05
7.24704e-05
7.25372e-05
7.26008e-05
7.26615e-05
7.27324e-05
7.28189e-05
7.29077e-05
7.29814e-05
7.30278e-05
7.30701e-05
7.31305e-05
7.32183e-05
7.33093e-05
7.33934e-05
7.34509e-05
7.3479e-05
7.35265e-05
7.36107e-05
7.37027e-05
7.37857e-05
7.38389e-05
7.38671e-05
7.39158e-05
7.39957e-05
7.40798e-05
7.4156e-05
7.42111e-05
7.42465e-05
7.4295e-05
7.43618e-05
7.4435e-05
7.45088e-05
7.45663e-05
7.4606e-05
7.46483e-05
7.47025e-05
7.47705e-05
7.48492e-05
7.49102e-05
7.49458e-05
7.49777e-05
7.50223e-05
7.50916e-05
7.51697e-05
7.52331e-05
7.52174e-05
3.89119e-05
3.2455e-05
2.67301e-05
2.555e-05
2.83547e-05
3.3173e-05
3.84673e-05
4.33412e-05
4.74408e-05
5.07133e-05
5.32489e-05
5.51865e-05
5.66741e-05
5.78466e-05
5.88075e-05
5.96175e-05
6.03152e-05
6.09256e-05
6.14467e-05
6.18904e-05
6.22747e-05
6.26149e-05
6.29215e-05
6.32133e-05
6.3493e-05
6.37537e-05
6.39921e-05
6.42117e-05
6.44179e-05
6.4613e-05
6.47975e-05
6.4972e-05
6.51383e-05
6.52987e-05
6.54568e-05
6.56124e-05
6.57627e-05
6.5906e-05
6.60423e-05
6.6172e-05
6.62959e-05
6.64157e-05
6.65321e-05
6.66467e-05
6.67604e-05
6.68738e-05
6.69868e-05
6.7099e-05
6.72088e-05
6.73152e-05
6.74188e-05
6.75202e-05
6.76199e-05
6.77182e-05
6.78148e-05
6.79098e-05
6.80037e-05
6.80977e-05
6.81917e-05
6.82854e-05
6.83782e-05
6.84692e-05
6.85582e-05
6.86457e-05
6.87324e-05
6.88187e-05
6.89049e-05
6.89915e-05
6.90781e-05
6.91642e-05
6.92497e-05
6.93355e-05
6.94216e-05
6.95079e-05
6.95939e-05
6.96787e-05
6.97623e-05
6.98446e-05
6.9926e-05
7.0007e-05
7.00878e-05
7.01684e-05
7.02493e-05
7.03306e-05
7.0412e-05
7.04927e-05
7.05727e-05
7.06526e-05
7.07332e-05
7.08133e-05
7.08923e-05
7.09698e-05
7.10462e-05
7.11229e-05
7.12004e-05
7.12775e-05
7.13538e-05
7.14291e-05
7.15037e-05
7.15791e-05
7.16564e-05
7.17342e-05
7.18118e-05
7.1887e-05
7.19593e-05
7.20306e-05
7.21012e-05
7.21729e-05
7.22463e-05
7.23209e-05
7.23969e-05
7.247e-05
7.25369e-05
7.26009e-05
7.26618e-05
7.2732e-05
7.28182e-05
7.29028e-05
7.29796e-05
7.30248e-05
7.30694e-05
7.31312e-05
7.32193e-05
7.33096e-05
7.33934e-05
7.34513e-05
7.34793e-05
7.35262e-05
7.361e-05
7.37015e-05
7.37844e-05
7.38391e-05
7.38678e-05
7.39164e-05
7.39963e-05
7.40793e-05
7.41551e-05
7.42109e-05
7.42468e-05
7.42956e-05
7.43621e-05
7.44343e-05
7.45078e-05
7.45659e-05
7.46061e-05
7.46485e-05
7.47024e-05
7.47703e-05
7.48491e-05
7.49104e-05
7.49459e-05
7.49774e-05
7.50221e-05
7.50914e-05
7.51692e-05
7.52328e-05
7.52173e-05
3.88883e-05
3.24348e-05
2.67264e-05
2.55554e-05
2.83612e-05
3.31767e-05
3.84679e-05
4.33394e-05
4.7438e-05
5.07099e-05
5.3245e-05
5.51823e-05
5.66699e-05
5.78426e-05
5.88035e-05
5.9613e-05
6.03103e-05
6.092e-05
6.14407e-05
6.18844e-05
6.22692e-05
6.26102e-05
6.29178e-05
6.32103e-05
6.34902e-05
6.37505e-05
6.39884e-05
6.42078e-05
6.44145e-05
6.46103e-05
6.47952e-05
6.49696e-05
6.51354e-05
6.52953e-05
6.5453e-05
6.56089e-05
6.57602e-05
6.59048e-05
6.60422e-05
6.61724e-05
6.62962e-05
6.64152e-05
6.65306e-05
6.66447e-05
6.6758e-05
6.68714e-05
6.69848e-05
6.70975e-05
6.72081e-05
6.73157e-05
6.74207e-05
6.75232e-05
6.76229e-05
6.77204e-05
6.78159e-05
6.79102e-05
6.80041e-05
6.80984e-05
6.81927e-05
6.82864e-05
6.8379e-05
6.847e-05
6.85592e-05
6.86473e-05
6.87346e-05
6.88209e-05
6.89066e-05
6.89925e-05
6.90785e-05
6.91643e-05
6.92495e-05
6.93352e-05
6.94214e-05
6.95078e-05
6.95938e-05
6.96784e-05
6.97615e-05
6.98436e-05
6.99253e-05
7.00068e-05
7.0088e-05
7.01685e-05
7.02491e-05
7.033e-05
7.04113e-05
7.04924e-05
7.05728e-05
7.0653e-05
7.07333e-05
7.08131e-05
7.08915e-05
7.09684e-05
7.10445e-05
7.11214e-05
7.11993e-05
7.12769e-05
7.13534e-05
7.14287e-05
7.15031e-05
7.15788e-05
7.16563e-05
7.17343e-05
7.1812e-05
7.18872e-05
7.19595e-05
7.20306e-05
7.21011e-05
7.21728e-05
7.22464e-05
7.23213e-05
7.23976e-05
7.24705e-05
7.25372e-05
7.26008e-05
7.26617e-05
7.27323e-05
7.28189e-05
7.29032e-05
7.29783e-05
7.30245e-05
7.30702e-05
7.31322e-05
7.32202e-05
7.33104e-05
7.33937e-05
7.34508e-05
7.34792e-05
7.3527e-05
7.36117e-05
7.37036e-05
7.37858e-05
7.38391e-05
7.3867e-05
7.39159e-05
7.39961e-05
7.40799e-05
7.41558e-05
7.42107e-05
7.42459e-05
7.42944e-05
7.43613e-05
7.44343e-05
7.45082e-05
7.4566e-05
7.46054e-05
7.46473e-05
7.47016e-05
7.47697e-05
7.48483e-05
7.49094e-05
7.49452e-05
7.49769e-05
7.50219e-05
7.5091e-05
7.51684e-05
7.5232e-05
7.52169e-05
3.89118e-05
3.24548e-05
2.67299e-05
2.55499e-05
2.83548e-05
3.31732e-05
3.84675e-05
4.33414e-05
4.74409e-05
5.07132e-05
5.32488e-05
5.51862e-05
5.66733e-05
5.78458e-05
5.88065e-05
5.96161e-05
6.03133e-05
6.09227e-05
6.14431e-05
6.18863e-05
6.22703e-05
6.26102e-05
6.29169e-05
6.32087e-05
6.34885e-05
6.37492e-05
6.39877e-05
6.4208e-05
6.44151e-05
6.4611e-05
6.47958e-05
6.497e-05
6.51354e-05
6.52951e-05
6.54531e-05
6.56096e-05
6.57615e-05
6.59059e-05
6.60424e-05
6.61717e-05
6.62951e-05
6.64147e-05
6.65307e-05
6.66448e-05
6.67579e-05
6.68711e-05
6.69843e-05
6.70973e-05
6.72083e-05
6.7316e-05
6.74209e-05
6.75234e-05
6.76234e-05
6.77214e-05
6.78175e-05
6.79119e-05
6.80057e-05
6.80999e-05
6.81944e-05
6.82886e-05
6.83816e-05
6.84725e-05
6.85612e-05
6.86486e-05
6.87352e-05
6.88211e-05
6.89067e-05
6.89926e-05
6.90789e-05
6.91649e-05
6.92501e-05
6.93356e-05
6.94216e-05
6.95078e-05
6.95936e-05
6.96781e-05
6.9761e-05
6.98429e-05
6.99244e-05
7.00058e-05
7.00871e-05
7.01681e-05
7.02493e-05
7.03307e-05
7.0412e-05
7.0493e-05
7.05732e-05
7.06532e-05
7.07336e-05
7.08134e-05
7.0892e-05
7.09692e-05
7.10453e-05
7.1122e-05
7.11998e-05
7.12773e-05
7.13536e-05
7.14288e-05
7.15035e-05
7.15796e-05
7.16574e-05
7.17355e-05
7.18127e-05
7.18874e-05
7.19596e-05
7.20309e-05
7.21019e-05
7.21738e-05
7.22472e-05
7.23218e-05
7.23978e-05
7.24706e-05
7.25373e-05
7.26004e-05
7.26614e-05
7.27325e-05
7.28191e-05
7.29038e-05
7.29805e-05
7.30243e-05
7.30699e-05
7.31326e-05
7.32206e-05
7.33097e-05
7.3393e-05
7.34512e-05
7.348e-05
7.35276e-05
7.36116e-05
7.37024e-05
7.37848e-05
7.38392e-05
7.38674e-05
7.3916e-05
7.3996e-05
7.40795e-05
7.41558e-05
7.42111e-05
7.4246e-05
7.4294e-05
7.4361e-05
7.44345e-05
7.45084e-05
7.45653e-05
7.4604e-05
7.46464e-05
7.47016e-05
7.47704e-05
7.48484e-05
7.49085e-05
7.49442e-05
7.49773e-05
7.5023e-05
7.50912e-05
7.51675e-05
7.52314e-05
7.52171e-05
3.88883e-05
3.24348e-05
2.67264e-05
2.55554e-05
2.83612e-05
3.31768e-05
3.84679e-05
4.33394e-05
4.7438e-05
5.07097e-05
5.32448e-05
5.5182e-05
5.66695e-05
5.78424e-05
5.88034e-05
5.96129e-05
6.03103e-05
6.09199e-05
6.14405e-05
6.18841e-05
6.22689e-05
6.26098e-05
6.29175e-05
6.32098e-05
6.34897e-05
6.375e-05
6.39877e-05
6.42071e-05
6.4414e-05
6.46101e-05
6.47953e-05
6.49698e-05
6.51357e-05
6.52957e-05
6.54533e-05
6.56088e-05
6.57598e-05
6.59039e-05
6.60407e-05
6.61707e-05
6.62948e-05
6.64152e-05
6.65314e-05
6.66452e-05
6.67576e-05
6.68701e-05
6.69832e-05
6.70965e-05
6.72079e-05
6.7316e-05
6.74209e-05
6.75231e-05
6.76227e-05
6.77206e-05
6.78167e-05
6.79114e-05
6.80054e-05
6.80997e-05
6.81944e-05
6.82886e-05
6.83816e-05
6.84722e-05
6.85606e-05
6.8648e-05
6.87351e-05
6.88216e-05
6.89073e-05
6.89928e-05
6.90783e-05
6.91639e-05
6.92495e-05
6.93357e-05
6.94221e-05
6.95083e-05
6.95938e-05
6.96779e-05
6.97609e-05
6.98429e-05
6.99244e-05
7.00058e-05
7.00869e-05
7.01678e-05
7.02487e-05
7.03299e-05
7.04114e-05
7.04927e-05
7.05734e-05
7.06539e-05
7.07345e-05
7.08143e-05
7.08925e-05
7.09693e-05
7.10452e-05
7.11221e-05
7.12001e-05
7.12778e-05
7.13542e-05
7.14293e-05
7.15039e-05
7.15797e-05
7.16574e-05
7.17355e-05
7.18127e-05
7.18875e-05
7.19597e-05
7.20308e-05
7.21016e-05
7.21735e-05
7.22472e-05
7.23224e-05
7.23986e-05
7.24711e-05
7.25371e-05