/*--------------------------------*- C++ -*----------------------------------*\
  =========                 |
  \\      /  F ield         | OpenFOAM: The Open Source CFD Toolbox
   \\    /   O peration     | Website:  https://openfoam.org
    \\  /    A nd           | Version:  9
     \\/     M anipulation  |
\*---------------------------------------------------------------------------*/
FoamFile
{
    format      ascii;
    class       volScalarField;
    location    "1200";
    object      omega;
}
// * * * * * * * * * * * * * * * * * * * * * * * * * * * * * * * * * * * * * //

dimensions      [0 0 -1 0 0 0 0];

internalField   nonuniform List<scalar> 
329700
(
4798.99
6586.49
6199.75
5937.52
5972.93
6120.02
6265.08
6374.45
6449.18
6497.66
6527.97
6546.72
6558.63
6566.69
6572.66
6577.47
6581.43
6584.38
6586.48
6588.16
6589.81
6591.59
6593.56
6595.72
6597.96
6600.18
6602.4
6604.72
6607.22
6609.91
6612.74
6615.7
6618.81
6622.15
6625.71
6629.39
6633.08
6636.73
6640.35
6643.99
6647.68
6651.45
6655.29
6659.23
6663.31
6667.52
6671.82
6676.15
6680.48
6684.81
6689.19
6693.62
6698.08
6702.58
6707.11
6711.69
6716.33
6721.04
6725.81
6730.61
6735.43
6740.24
6745.04
6749.84
6754.67
6759.53
6764.43
6769.39
6774.41
6779.49
6784.6
6789.75
6794.95
6800.16
6805.37
6810.57
6815.77
6820.97
6826.17
6831.38
6836.62
6841.89
6847.19
6852.52
6857.85
6863.2
6868.56
6873.93
6879.32
6884.7
6890.04
6895.37
6900.69
6906.03
6911.4
6916.75
6922.08
6927.42
6932.77
6938.17
6943.6
6949.03
6954.42
6959.75
6965.03
6970.31
6975.6
6980.95
6986.38
6991.79
6997.14
7002.36
7007.46
7012.65
7017.95
7023.46
7029.13
7034.47
7039.42
7044.26
7049.3
7054.72
7060.44
7065.86
7070.84
7075.55
7080.24
7085.53
7091.29
7096.77
7101.7
7106.31
7110.79
7115.95
7121.75
7127.1
7131.87
7136.39
7140.85
7145.88
7151.34
7156.41
7161.05
7165.57
7170.14
7175
7180.05
7184.96
7189.8
7194.36
7198.6
7203.01
7207.68
7212.58
7217.74
7221.39
7227.19
4798.99
6588.52
6200.93
5937.69
5972.74
6119.93
6265.14
6374.62
6449.38
6497.87
6528.21
6546.95
6558.84
6566.87
6572.81
6577.6
6581.54
6584.47
6586.55
6588.21
6589.86
6591.63
6593.6
6595.78
6598.04
6600.27
6602.46
6604.74
6607.22
6609.91
6612.77
6615.76
6618.91
6622.27
6625.84
6629.49
6633.13
6636.72
6640.3
6643.93
6647.62
6651.41
6655.26
6659.21
6663.29
6667.52
6671.83
6676.17
6680.49
6684.8
6689.14
6693.56
6698.03
6702.55
6707.1
6711.68
6716.3
6721
6725.78
6730.58
6735.38
6740.18
6744.98
6749.8
6754.66
6759.54
6764.46
6769.42
6774.43
6779.5
6784.62
6789.79
6794.99
6800.2
6805.4
6810.6
6815.81
6821.02
6826.21
6831.42
6836.64
6841.91
6847.21
6852.53
6857.87
6863.21
6868.56
6873.93
6879.32
6884.7
6890.05
6895.38
6900.7
6906.05
6911.42
6916.77
6922.1
6927.43
6932.78
6938.18
6943.61
6949.03
6954.43
6959.77
6965.06
6970.35
6975.64
6980.99
6986.41
6991.81
6997.16
7002.39
7007.49
7012.66
7017.95
7023.45
7029.12
7034.49
7039.45
7044.31
7049.35
7054.76
7060.48
7065.9
7070.87
7075.55
7080.24
7085.53
7091.29
7096.74
7101.68
7106.31
7110.83
7116
7121.78
7127.1
7131.87
7136.4
7140.86
7145.9
7151.33
7156.4
7161.06
7165.59
7170.15
7175.01
7180.07
7184.98
7189.81
7194.36
7198.6
7203.02
7207.72
7212.61
7217.74
7221.38
7227.2
4798.99
6586.28
6199.46
5937.19
5972.67
6119.87
6264.98
6374.37
6449.09
6497.56
6527.89
6546.67
6558.59
6566.65
6572.58
6577.35
6581.26
6584.18
6586.26
6587.95
6589.63
6591.41
6593.39
6595.57
6597.83
6600.07
6602.28
6604.58
6607.07
6609.76
6612.61
6615.59
6618.74
6622.11
6625.67
6629.33
6632.96
6636.53
6640.11
6643.75
6647.46
6651.26
6655.14
6659.12
6663.24
6667.48
6671.8
6676.13
6680.44
6684.74
6689.09
6693.5
6697.97
6702.49
6707.03
6711.6
6716.22
6720.93
6725.7
6730.51
6735.33
6740.14
6744.95
6749.77
6754.62
6759.51
6764.44
6769.41
6774.44
6779.52
6784.65
6789.82
6795.02
6800.23
6805.44
6810.64
6815.85
6821.05
6826.24
6831.45
6836.67
6841.93
6847.23
6852.54
6857.87
6863.22
6868.58
6873.96
6879.35
6884.74
6890.1
6895.43
6900.75
6906.11
6911.48
6916.83
6922.16
6927.48
6932.83
6938.23
6943.66
6949.08
6954.47
6959.81
6965.11
6970.38
6975.67
6981.02
6986.44
6991.86
6997.21
7002.43
7007.52
7012.67
7017.96
7023.49
7029.16
7034.52
7039.46
7044.3
7049.34
7054.75
7060.53
7065.95
7070.88
7075.58
7080.22
7085.5
7091.35
7096.81
7101.72
7106.33
7110.84
7116.02
7121.8
7127.13
7131.9
7136.4
7140.86
7145.9
7151.35
7156.43
7161.09
7165.6
7170.14
7175.01
7180.08
7185
7189.83
7194.35
7198.59
7203.01
7207.73
7212.63
7217.74
7221.36
7227.19
4798.99
6584.14
6197.98
5936.83
5972.78
6119.91
6264.84
6374.12
6448.77
6497.19
6527.5
6546.25
6558.15
6566.22
6572.19
6576.98
6580.92
6583.86
6585.97
6587.68
6589.36
6591.15
6593.13
6595.31
6597.56
6599.79
6602
6604.3
6606.8
6609.49
6612.35
6615.34
6618.48
6621.83
6625.4
6629.07
6632.74
6636.38
6640.01
6643.68
6647.41
6651.22
6655.08
6659.04
6663.13
6667.36
6671.67
6676.02
6680.35
6684.68
6689.04
6693.47
6697.95
6702.48
6707.04
6711.62
6716.25
6720.96
6725.73
6730.53
6735.33
6740.13
6744.94
6749.78
6754.65
6759.56
6764.49
6769.47
6774.49
6779.56
6784.68
6789.84
6795.03
6800.23
6805.44
6810.65
6815.85
6821.05
6826.24
6831.44
6836.68
6841.94
6847.24
6852.57
6857.91
6863.26
6868.62
6874
6879.39
6884.78
6890.13
6895.45
6900.78
6906.14
6911.52
6916.88
6922.2
6927.52
6932.86
6938.26
6943.69
6949.12
6954.52
6959.86
6965.15
6970.42
6975.7
6981.06
6986.48
6991.89
6997.24
7002.46
7007.54
7012.69
7017.98
7023.51
7029.19
7034.54
7039.48
7044.35
7049.38
7054.77
7060.59
7066.01
7070.91
7075.6
7080.2
7085.5
7091.37
7096.81
7101.71
7106.35
7110.88
7116.05
7121.81
7127.13
7131.9
7136.42
7140.89
7145.91
7151.35
7156.43
7161.11
7165.62
7170.15
7175.01
7180.09
7185.02
7189.84
7194.36
7198.58
7203.04
7207.79
7212.67
7217.75
7221.37
7227.2
4798.99
6588.16
6200.51
5937.21
5972.3
6119.59
6264.89
6374.42
6449.19
6497.66
6527.97
6546.7
6558.57
6566.62
6572.56
6577.31
6581.2
6584.1
6586.16
6587.84
6589.49
6591.26
6593.23
6595.41
6597.7
6599.97
6602.22
6604.56
6607.07
6609.77
6612.62
6615.6
6618.73
6622.07
6625.59
6629.2
6632.8
6636.38
6639.99
6643.68
6647.44
6651.28
6655.18
6659.16
6663.24
6667.44
6671.71
6676.03
6680.35
6684.67
6689.03
6693.45
6697.93
6702.44
6706.99
6711.56
6716.19
6720.89
6725.66
6730.46
6735.26
6740.08
6744.9
6749.74
6754.61
6759.51
6764.45
6769.43
6774.46
6779.54
6784.66
6789.82
6795.01
6800.21
6805.41
6810.61
6815.82
6821.02
6826.21
6831.43
6836.67
6841.93
6847.23
6852.55
6857.89
6863.24
6868.61
6873.98
6879.38
6884.76
6890.11
6895.44
6900.78
6906.14
6911.52
6916.88
6922.21
6927.54
6932.89
6938.29
6943.72
6949.15
6954.54
6959.87
6965.16
6970.43
6975.7
6981.05
6986.47
6991.88
6997.24
7002.46
7007.55
7012.7
7017.99
7023.52
7029.19
7034.55
7039.48
7044.34
7049.38
7054.77
7060.62
7066.04
7070.93
7075.6
7080.19
7085.49
7091.4
7096.85
7101.74
7106.34
7110.88
7116.07
7121.83
7127.14
7131.91
7136.43
7140.9
7145.93
7151.36
7156.44
7161.14
7165.66
7170.17
7175.02
7180.1
7185.05
7189.87
7194.38
7198.59
7203.03
7207.79
7212.7
7217.76
7221.36
7227.21
4798.99
6584.17
6197.99
5936.79
5972.74
6119.87
6264.82
6374.11
6448.77
6497.17
6527.47
6546.21
6558.11
6566.2
6572.18
6576.98
6580.92
6583.87
6585.97
6587.68
6589.37
6591.16
6593.13
6595.29
6597.55
6599.78
6601.99
6604.3
6606.81
6609.51
6612.38
6615.37
6618.51
6621.86
6625.42
6629.07
6632.71
6636.32
6639.95
6643.64
6647.39
6651.21
6655.05
6658.98
6663.04
6667.27
6671.59
6675.94
6680.27
6684.58
6688.94
6693.37
6697.87
6702.4
6706.95
6711.52
6716.14
6720.85
6725.63
6730.44
6735.25
6740.06
6744.87
6749.7
6754.57
6759.48
6764.42
6769.41
6774.45
6779.53
6784.66
6789.82
6795.01
6800.22
6805.43
6810.63
6815.82
6821.02
6826.21
6831.42
6836.66
6841.92
6847.21
6852.53
6857.86
6863.22
6868.58
6873.96
6879.35
6884.73
6890.08
6895.41
6900.75
6906.12
6911.52
6916.89
6922.22
6927.54
6932.88
6938.27
6943.71
6949.13
6954.53
6959.86
6965.15
6970.42
6975.7
6981.05
6986.46
6991.87
6997.23
7002.45
7007.54
7012.69
7017.98
7023.51
7029.19
7034.54
7039.48
7044.31
7049.35
7054.76
7060.63
7066.04
7070.92
7075.6
7080.2
7085.51
7091.42
7096.84
7101.72
7106.34
7110.9
7116.09
7121.83
7127.13
7131.9
7136.44
7140.93
7145.95
7151.36
7156.44
7161.16
7165.69
7170.19
7175.02
7180.11
7185.06
7189.89
7194.38
7198.59
7203.05
7207.85
7212.74
7217.77
7221.37
7227.22
4798.99
6586.3
6199.44
5937.1
5972.54
6119.77
6264.91
6374.32
6449.05
6497.5
6527.82
6546.59
6558.52
6566.61
6572.56
6577.33
6581.23
6584.13
6586.21
6587.92
6589.61
6591.39
6593.36
6595.53
6597.79
6600.03
6602.25
6604.56
6607.05
6609.74
6612.58
6615.56
6618.72
6622.09
6625.67
6629.32
6632.95
6636.52
6640.09
6643.73
6647.43
6651.23
6655.11
6659.09
6663.19
6667.43
6671.73
6676.06
6680.38
6684.7
6689.06
6693.48
6697.96
6702.47
6707.01
6711.59
6716.22
6720.94
6725.71
6730.5
6735.31
6740.12
6744.93
6749.77
6754.63
6759.53
6764.46
6769.44
6774.47
6779.55
6784.67
6789.83
6795.02
6800.23
6805.44
6810.65
6815.85
6821.05
6826.23
6831.44
6836.67
6841.93
6847.22
6852.54
6857.87
6863.22
6868.58
6873.95
6879.34
6884.72
6890.07
6895.4
6900.73
6906.09
6911.48
6916.85
6922.19
6927.51
6932.86
6938.25
6943.68
6949.11
6954.5
6959.84
6965.13
6970.41
6975.68
6981.02
6986.43
6991.84
6997.2
7002.43
7007.53
7012.68
7017.96
7023.48
7029.16
7034.52
7039.47
7044.29
7049.29
7054.74
7060.62
7066.04
7070.92
7075.61
7080.21
7085.5
7091.41
7096.84
7101.71
7106.33
7110.91
7116.09
7121.83
7127.11
7131.89
7136.45
7140.94
7145.95
7151.34
7156.43
7161.18
7165.72
7170.21
7175.01
7180.1
7185.08
7189.92
7194.39
7198.57
7203.02
7207.85
7212.77
7217.78
7221.35
7227.21
4798.99
6588.08
6200.44
5937.28
5972.43
6119.71
6264.98
6374.47
6449.23
6497.69
6528
6546.73
6558.63
6566.71
6572.68
6577.46
6581.38
6584.31
6586.39
6588.07
6589.73
6591.5
6593.46
6595.63
6597.88
6600.11
6602.32
6604.62
6607.11
6609.8
6612.65
6615.63
6618.79
6622.17
6625.74
6629.41
6633.05
6636.63
6640.21
6643.84
6647.54
6651.33
6655.17
6659.13
6663.22
6667.45
6671.76
6676.1
6680.42
6684.73
6689.08
6693.51
6697.99
6702.51
6707.06
6711.64
6716.26
6720.97
6725.74
6730.54
6735.36
6740.17
6744.98
6749.8
6754.65
6759.54
6764.47
6769.45
6774.47
6779.54
6784.65
6789.81
6795.01
6800.22
6805.43
6810.62
6815.81
6821
6826.18
6831.39
6836.64
6841.9
6847.2
6852.52
6857.85
6863.2
6868.56
6873.94
6879.33
6884.7
6890.05
6895.37
6900.7
6906.07
6911.45
6916.82
6922.14
6927.46
6932.8
6938.19
6943.63
6949.07
6954.47
6959.81
6965.11
6970.39
6975.68
6981.03
6986.43
6991.84
6997.2
7002.42
7007.52
7012.67
7017.95
7023.47
7029.15
7034.5
7039.43
7044.28
7049.26
7054.73
7060.63
7066.02
7070.89
7075.58
7080.22
7085.53
7091.43
7096.84
7101.69
7106.31
7110.91
7116.09
7121.8
7127.07
7131.86
7136.44
7140.96
7145.97
7151.33
7156.42
7161.19
7165.74
7170.2
7175
7180.09
7185.07
7189.91
7194.38
7198.55
7203.03
7207.89
7212.8
7217.77
7221.33
7227.21
4798.99
6584.27
6198.15
5936.94
5972.83
6119.93
6264.87
6374.16
6448.81
6497.23
6527.53
6546.28
6558.2
6566.27
6572.26
6577.08
6581.03
6584
6586.12
6587.84
6589.52
6591.3
6593.25
6595.4
6597.64
6599.88
6602.12
6604.45
6606.96
6609.65
6612.49
6615.46
6618.61
6621.99
6625.59
6629.28
6632.97
6636.6
6640.21
6643.86
6647.56
6651.32
6655.15
6659.1
6663.2
6667.45
6671.77
6676.1
6680.42
6684.75
6689.11
6693.54
6698.01
6702.51
6707.05
6711.63
6716.26
6720.98
6725.75
6730.54
6735.32
6740.1
6744.9
6749.72
6754.58
6759.48
6764.42
6769.4
6774.42
6779.49
6784.59
6789.75
6794.93
6800.14
6805.36
6810.56
6815.76
6820.94
6826.12
6831.33
6836.57
6841.84
6847.14
6852.46
6857.81
6863.17
6868.54
6873.92
6879.32
6884.7
6890.05
6895.38
6900.71
6906.06
6911.43
6916.78
6922.11
6927.43
6932.78
6938.17
6943.61
6949.05
6954.45
6959.8
6965.11
6970.4
6975.69
6981.03
6986.43
6991.83
6997.19
7002.42
7007.52
7012.67
7017.94
7023.46
7029.14
7034.49
7039.41
7044.29
7049.25
7054.72
7060.62
7066.03
7070.9
7075.6
7080.23
7085.53
7091.43
7096.83
7101.66
7106.3
7110.92
7116.11
7121.8
7127.04
7131.83
7136.44
7140.97
7145.96
7151.3
7156.38
7161.18
7165.76
7170.21
7174.97
7180.06
7185.08
7189.94
7194.38
7198.52
7202.99
7207.88
7212.82
7217.77
7221.3
7227.18
4798.99
6586.31
6199.54
5937.26
5972.7
6119.89
6265.01
6374.41
6449.12
6497.6
6527.91
6546.65
6558.57
6566.63
6572.59
6577.4
6581.35
6584.31
6586.41
6588.08
6589.72
6591.46
6593.4
6595.56
6597.82
6600.06
6602.3
6604.62
6607.12
6609.83
6612.7
6615.7
6618.86
6622.24
6625.82
6629.48
6633.13
6636.72
6640.3
6643.93
6647.63
6651.4
6655.23
6659.16
6663.23
6667.44
6671.75
6676.08
6680.41
6684.73
6689.07
6693.49
6697.95
6702.46
6707
6711.59
6716.22
6720.93
6725.69
6730.47
6735.27
6740.08
6744.89
6749.71
6754.57
6759.48
6764.43
6769.42
6774.45
6779.5
6784.6
6789.74
6794.93
6800.14
6805.35
6810.55
6815.74
6820.92
6826.11
6831.32
6836.56
6841.84
6847.15
6852.49
6857.84
6863.2
6868.57
6873.96
6879.36
6884.73
6890.07
6895.39
6900.72
6906.07
6911.45
6916.8
6922.12
6927.45
6932.79
6938.18
6943.62
6949.06
6954.46
6959.8
6965.11
6970.4
6975.7
6981.04
6986.44
6991.82
6997.17
7002.4
7007.51
7012.67
7017.95
7023.47
7029.14
7034.54
7039.39
7044.26
7049.24
7054.71
7060.6
7065.99
7070.86
7075.58
7080.25
7085.56
7091.45
7096.83
7101.65
7106.28
7110.91
7116.1
7121.78
7127.01
7131.8
7136.43
7140.98
7145.97
7151.28
7156.37
7161.18
7165.76
7170.19
7174.96
7180.04
7185.05
7189.91
7194.36
7198.49
7202.98
7207.9
7212.82
7217.74
7221.28
7227.17
4798.99
6588.69
6201.1
5937.78
5972.76
6119.94
6265.16
6374.65
6449.41
6497.92
6528.23
6546.96
6558.86
6566.91
6572.86
6577.66
6581.58
6584.51
6586.59
6588.26
6589.9
6591.67
6593.63
6595.8
6598.05
6600.27
6602.48
6604.78
6607.27
6609.97
6612.82
6615.8
6618.93
6622.3
6625.87
6629.53
6633.18
6636.77
6640.36
6643.99
6647.7
6651.46
6655.28
6659.23
6663.31
6667.53
6671.83
6676.16
6680.48
6684.79
6689.14
6693.55
6698.01
6702.52
6707.06
6711.64
6716.27
6720.98
6725.76
6730.56
6735.36
6740.15
6744.93
6749.74
6754.58
6759.48
6764.44
6769.43
6774.47
6779.55
6784.65
6789.8
6794.97
6800.17
6805.38
6810.57
6815.76
6820.94
6826.12
6831.33
6836.58
6841.86
6847.17
6852.51
6857.86
6863.22
6868.59
6873.96
6879.35
6884.72
6890.06
6895.39
6900.71
6906.06
6911.43
6916.79
6922.12
6927.45
6932.8
6938.2
6943.64
6949.07
6954.47
6959.81
6965.11
6970.41
6975.71
6981.04
6986.43
6991.8
6997.14
7002.38
7007.49
7012.67
7017.95
7023.46
7029.12
7035.04
7039.23
7044.04
7049.24
7054.71
7060.54
7065.94
7070.86
7075.61
7080.27
7085.56
7091.43
7096.8
7101.6
7106.26
7110.91
7116.11
7121.77
7126.98
7131.76
7136.42
7141
7145.97
7151.26
7156.33
7161.16
7165.76
7170.2
7174.94
7180.01
7185.04
7189.92
7194.35
7198.47
7202.95
7207.89
7212.82
7217.73
7221.26
7227.15
4798.99
6586.39
6199.73
5937.52
5972.94
6120.04
6265.1
6374.48
6449.21
6497.69
6527.99
6546.72
6558.64
6566.71
6572.7
6577.52
6581.46
6584.42
6586.52
6588.2
6589.87
6591.65
6593.61
6595.77
6598.01
6600.23
6602.45
6604.76
6607.26
6609.94
6612.76
6615.71
6618.8
6622.14
6625.71
6629.41
6633.13
6636.81
6640.46
6644.12
6647.81
6651.57
6655.4
6659.33
6663.4
6667.61
6671.92
6676.25
6680.58
6684.9
6689.25
6693.66
6698.11
6702.6
6707.13
6711.7
6716.33
6721.04
6725.81
6730.6
6735.4
6740.21
6745.01
6749.82
6754.65
6759.54
6764.47
6769.46
6774.49
6779.55
6784.64
6789.79
6794.99
6800.2
6805.4
6810.59
6815.77
6820.96
6826.16
6831.37
6836.62
6841.89
6847.19
6852.52
6857.87
6863.23
6868.6
6873.97
6879.34
6884.7
6890.03
6895.36
6900.69
6906.05
6911.43
6916.79
6922.12
6927.46
6932.81
6938.21
6943.64
6949.07
6954.47
6959.81
6965.11
6970.4
6975.7
6981.04
6986.42
6991.78
6997.12
7002.35
7007.47
7012.67
7017.95
7023.45
7029.13
7034.59
7039.46
7044.17
7049.2
7054.71
7060.56
7065.93
7070.82
7075.57
7080.26
7085.57
7091.44
7096.81
7101.6
7106.23
7110.88
7116.09
7121.74
7126.96
7131.74
7136.4
7140.98
7145.96
7151.24
7156.31
7161.15
7165.75
7170.17
7174.91
7179.98
7185.01
7189.89
7194.33
7198.45
7202.94
7207.88
7212.8
7217.71
7221.24
7227.14
4798.99
6588.37
6200.87
5937.82
5972.96
6120.14
6265.31
6374.76
6449.48
6497.96
6528.26
6546.97
6558.86
6566.9
6572.86
6577.64
6581.56
6584.49
6586.57
6588.25
6589.9
6591.67
6593.64
6595.81
6598.06
6600.27
6602.46
6604.76
6607.25
6609.94
6612.8
6615.77
6618.9
6622.25
6625.81
6629.48
6633.14
6636.74
6640.33
6643.96
6647.65
6651.42
6655.26
6659.2
6663.27
6667.49
6671.8
6676.15
6680.5
6684.83
6689.19
6693.6
6698.06
6702.57
6707.11
6711.67
6716.29
6720.99
6725.77
6730.57
6735.39
6740.19
6744.99
6749.8
6754.64
6759.54
6764.49
6769.49
6774.52
6779.58
6784.66
6789.79
6794.97
6800.17
6805.38
6810.57
6815.77
6820.95
6826.14
6831.35
6836.58
6841.85
6847.16
6852.49
6857.83
6863.18
6868.54
6873.91
6879.29
6884.65
6889.99
6895.32
6900.66
6906.01
6911.39
6916.75
6922.09
6927.43
6932.79
6938.19
6943.64
6949.06
6954.46
6959.8
6965.1
6970.4
6975.7
6981.03
6986.41
6991.76
6997.09
7002.33
7007.46
7012.66
7017.95
7023.43
7029.1
7034.45
7039.48
7044.1
7049.16
7054.7
7060.57
7065.93
7070.81
7075.57
7080.25
7085.54
7091.41
7096.77
7101.56
7106.22
7110.87
7116.08
7121.73
7126.93
7131.72
7136.39
7140.98
7145.95
7151.22
7156.28
7161.12
7165.73
7170.16
7174.89
7179.96
7185
7189.88
7194.32
7198.44
7202.93
7207.86
7212.79
7217.69
7221.23
7227.13
4798.99
6586.39
6199.77
5937.57
5972.98
6120.06
6265.11
6374.49
6449.23
6497.71
6528
6546.71
6558.6
6566.66
6572.61
6577.37
6581.27
6584.18
6586.27
6587.97
6589.66
6591.48
6593.47
6595.65
6597.89
6600.08
6602.27
6604.57
6607.08
6609.78
6612.63
6615.58
6618.7
6622.04
6625.62
6629.31
6633.01
6636.65
6640.25
6643.88
6647.55
6651.29
6655.12
6659.06
6663.14
6667.38
6671.73
6676.12
6680.51
6684.89
6689.27
6693.69
6698.13
6702.6
6707.11
6711.67
6716.3
6721.01
6725.79
6730.6
6735.42
6740.23
6745.04
6749.86
6754.71
6759.59
6764.52
6769.5
6774.51
6779.56
6784.64
6789.77
6794.95
6800.15
6805.36
6810.55
6815.74
6820.94
6826.14
6831.36
6836.6
6841.86
6847.16
6852.48
6857.83
6863.19
6868.55
6873.91
6879.27
6884.62
6889.94
6895.26
6900.6
6905.97
6911.36
6916.73
6922.07
6927.41
6932.78
6938.19
6943.64
6949.07
6954.47
6959.81
6965.1
6970.4
6975.7
6981.03
6986.41
6991.77
6997.1
7002.34
7007.46
7012.66
7017.96
7023.44
7029.11
7034.45
7039.48
7044.1
7049.17
7054.71
7060.58
7065.93
7070.81
7075.55
7080.25
7085.55
7091.43
7096.8
7101.58
7106.21
7110.85
7116.06
7121.72
7126.93
7131.72
7136.37
7140.94
7145.92
7151.2
7156.28
7161.11
7165.71
7170.13
7174.86
7179.94
7184.98
7189.85
7194.29
7198.42
7202.91
7207.84
7212.76
7217.67
7221.22
7227.12
4798.99
6588.36
6200.84
5937.8
5972.96
6120.14
6265.32
6374.76
6449.49
6497.95
6528.24
6546.94
6558.81
6566.85
6572.78
6577.52
6581.4
6584.29
6586.34
6588
6589.64
6591.41
6593.37
6595.55
6597.8
6600.03
6602.25
6604.57
6607.08
6609.78
6612.62
6615.57
6618.67
6622.02
6625.6
6629.3
6632.99
6636.6
6640.17
6643.78
6647.45
6651.21
6655.04
6658.97
6663.04
6667.28
6671.63
6676.04
6680.44
6684.82
6689.21
6693.64
6698.1
6702.6
6707.13
6711.7
6716.33
6721.06
6725.85
6730.67
6735.48
6740.28
6745.07
6749.87
6754.7
6759.57
6764.5
6769.48
6774.51
6779.56
6784.63
6789.75
6794.93
6800.12
6805.33
6810.52
6815.7
6820.89
6826.1
6831.33
6836.58
6841.86
6847.17
6852.51
6857.85
6863.21
6868.56
6873.92
6879.28
6884.63
6889.95
6895.28
6900.61
6905.98
6911.36
6916.73
6922.08
6927.42
6932.8
6938.22
6943.66
6949.09
6954.47
6959.81
6965.11
6970.41
6975.72
6981.05
6986.41
6991.77
6997.1
7002.34
7007.47
7012.66
7017.95
7023.44
7029.11
7034.45
7039.5
7044.1
7049.16
7054.71
7060.57
7065.91
7070.79
7075.56
7080.27
7085.56
7091.42
7096.78
7101.56
7106.21
7110.84
7116.05
7121.71
7126.92
7131.71
7136.36
7140.93
7145.91
7151.19
7156.27
7161.1
7165.68
7170.1
7174.85
7179.94
7184.97
7189.84
7194.27
7198.41
7202.92
7207.85
7212.75
7217.65
7221.22
7227.13
4798.99
6586.38
6199.77
5937.57
5972.98
6120.06
6265.11
6374.49
6449.22
6497.68
6527.97
6546.69
6558.58
6566.65
6572.6
6577.36
6581.26
6584.17
6586.25
6587.95
6589.64
6591.44
6593.44
6595.61
6597.85
6600.04
6602.23
6604.53
6607.05
6609.76
6612.61
6615.57
6618.67
6622.01
6625.56
6629.24
6632.92
6636.54
6640.15
6643.78
6647.47
6651.25
6655.06
6658.98
6663.03
6667.27
6671.63
6676.04
6680.46
6684.83
6689.22
6693.64
6698.09
6702.58
6707.11
6711.69
6716.32
6721.05
6725.83
6730.65
6735.46
6740.25
6745.04
6749.85
6754.69
6759.57
6764.49
6769.46
6774.47
6779.53
6784.62
6789.75
6794.93
6800.12
6805.31
6810.5
6815.68
6820.88
6826.08
6831.3
6836.55
6841.83
6847.14
6852.48
6857.84
6863.21
6868.58
6873.94
6879.3
6884.64
6889.96
6895.28
6900.62
6905.99
6911.38
6916.75
6922.09
6927.43
6932.8
6938.21
6943.66
6949.09
6954.47
6959.81
6965.11
6970.41
6975.71
6981.05
6986.43
6991.79
6997.12
7002.35
7007.46
7012.66
7017.96
7023.46
7029.13
7034.48
7039.52
7044.13
7049.16
7054.71
7060.56
7065.9
7070.77
7075.54
7080.25
7085.56
7091.44
7096.79
7101.57
7106.21
7110.83
7116.03
7121.7
7126.92
7131.71
7136.34
7140.89
7145.87
7151.19
7156.26
7161.08
7165.65
7170.08
7174.84
7179.94
7184.97
7189.81
7194.25
7198.41
7202.91
7207.82
7212.72
7217.65
7221.23
7227.13
4798.99
6588.36
6200.83
5937.8
5972.95
6120.13
6265.3
6374.75
6449.46
6497.93
6528.22
6546.93
6558.8
6566.83
6572.76
6577.51
6581.39
6584.29
6586.34
6587.99
6589.63
6591.39
6593.36
6595.54
6597.8
6600.03
6602.24
6604.55
6607.07
6609.77
6612.61
6615.56
6618.66
6622
6625.58
6629.29
6632.98
6636.59
6640.17
6643.78
6647.43
6651.23
6655.05
6658.96
6663.02
6667.25
6671.59
6675.99
6680.4
6684.78
6689.17
6693.6
6698.07
6702.58
6707.13
6711.7
6716.32
6721.02
6725.79
6730.59
6735.4
6740.2
6744.99
6749.8
6754.64
6759.53
6764.47
6769.45
6774.47
6779.54
6784.63
6789.76
6794.93
6800.13
6805.32
6810.51
6815.69
6820.88
6826.09
6831.31
6836.57
6841.85
6847.17
6852.51
6857.86
6863.22
6868.58
6873.94
6879.3
6884.64
6889.96
6895.28
6900.62
6905.99
6911.37
6916.74
6922.08
6927.42
6932.8
6938.21
6943.65
6949.06
6954.43
6959.77
6965.09
6970.4
6975.71
6981.04
6986.42
6991.77
6997.11
7002.34
7007.47
7012.68
7017.98
7023.46
7029.13
7034.5
7039.43
7044.2
7049.19
7054.69
7060.54
7065.89
7070.77
7075.53
7080.25
7085.55
7091.42
7096.77
7101.56
7106.19
7110.81
7116.01
7121.69
7126.93
7131.73
7136.34
7140.87
7145.85
7151.19
7156.29
7161.08
7165.62
7170.04
7174.84
7179.96
7184.97
7189.78
7194.22
7198.41
7202.94
7207.84
7212.71
7217.63
7221.23
7227.14
4798.99
6586.42
6199.79
5937.57
5972.95
6120.02
6265.07
6374.46
6449.19
6497.66
6527.96
6546.67
6558.57
6566.63
6572.58
6577.34
6581.24
6584.15
6586.23
6587.93
6589.61
6591.42
6593.42
6595.6
6597.83
6600.02
6602.2
6604.5
6607.02
6609.73
6612.58
6615.53
6618.64
6621.98
6625.53
6629.21
6632.91
6636.56
6640.18
6643.83
6647.51
6651.28
6655.08
6658.98
6663.01
6667.2
6671.53
6675.92
6680.31
6684.68
6689.08
6693.52
6697.99
6702.51
6707.07
6711.67
6716.32
6721.04
6725.81
6730.62
6735.43
6740.24
6745.03
6749.85
6754.7
6759.58
6764.5
6769.46
6774.47
6779.53
6784.63
6789.76
6794.92
6800.11
6805.31
6810.5
6815.69
6820.89
6826.09
6831.32
6836.57
6841.86
6847.17
6852.51
6857.86
6863.23
6868.59
6873.96
6879.32
6884.66
6889.98
6895.3
6900.64
6906
6911.38
6916.74
6922.07
6927.41
6932.78
6938.19
6943.63
6949.04
6954.42
6959.77
6965.07
6970.38
6975.69
6981.04
6986.42
6991.78
6997.11
7002.34
7007.45
7012.68
7018
7023.49
7029.15
7034.55
7039.38
7044.17
7049.2
7054.68
7060.53
7065.87
7070.75
7075.53
7080.26
7085.57
7091.45
7096.8
7101.59
7106.22
7110.8
7116
7121.69
7126.94
7131.74
7136.34
7140.85
7145.84
7151.21
7156.3
7161.06
7165.6
7170.05
7174.86
7179.98
7184.98
7189.77
7194.22
7198.43
7202.94
7207.8
7212.68
7217.64
7221.24
7227.15
4798.99
6587.82
6200.36
5937.63
5972.97
6120.16
6265.31
6374.72
6449.4
6497.85
6528.13
6546.82
6558.7
6566.72
6572.66
6577.41
6581.28
6584.17
6586.23
6587.88
6589.52
6591.29
6593.26
6595.44
6597.7
6599.92
6602.13
6604.45
6606.97
6609.67
6612.5
6615.45
6618.56
6621.91
6625.49
6629.19
6632.88
6636.5
6640.09
6643.71
6647.38
6651.18
6655
6658.9
6662.95
6667.17
6671.5
6675.89
6680.28
6684.65
6689.04
6693.48
6697.97
6702.49
6707.04
6711.61
6716.25
6720.97
6725.75
6730.55
6735.35
6740.14
6744.92
6749.73
6754.58
6759.48
6764.42
6769.4
6774.42
6779.47
6784.56
6789.69
6794.86
6800.06
6805.27
6810.46
6815.65
6820.84
6826.04
6831.27
6836.52
6841.81
6847.13
6852.47
6857.81
6863.18
6868.55
6873.91
6879.27
6884.62
6889.94
6895.27
6900.61
6905.98
6911.36
6916.72
6922.06
6927.41
6932.78
6938.19
6943.63
6949.03
6954.41
6959.75
6965.07
6970.39
6975.7
6981.04
6986.43
6991.79
6997.12
7002.35
7007.47
7012.7
7018.03
7023.51
7029.15
7035
7039.21
7044.03
7049.23
7054.69
7060.48
7065.85
7070.77
7075.56
7080.29
7085.58
7091.45
7096.8
7101.61
7106.23
7110.8
7116
7121.71
7126.99
7131.79
7136.36
7140.85
7145.85
7151.24
7156.34
7161.08
7165.58
7170.05
7174.89
7180.02
7184.98
7189.75
7194.21
7198.46
7202.99
7207.82
7212.67
7217.63
7221.26
7227.17
4798.99
6586.42
6199.79
5937.55
5972.93
6120.01
6265.08
6374.47
6449.19
6497.67
6527.95
6546.66
6558.56
6566.62
6572.58
6577.35
6581.23
6584.14
6586.23
6587.93
6589.62
6591.43
6593.42
6595.59
6597.83
6600.02
6602.21
6604.51
6607.03
6609.75
6612.6
6615.56
6618.68
6622.02
6625.57
6629.22
6632.88
6636.49
6640.08
6643.7
6647.38
6651.14
6654.96
6658.89
6662.96
6667.19
6671.55
6675.97
6680.4
6684.81
6689.23
6693.65
6698.09
6702.55
6707.06
6711.64
6716.28
6720.98
6725.74
6730.53
6735.33
6740.13
6744.93
6749.74
6754.59
6759.48
6764.41
6769.39
6774.4
6779.46
6784.54
6789.67
6794.84
6800.04
6805.25
6810.45
6815.65
6820.84
6826.03
6831.25
6836.5
6841.78
6847.09
6852.43
6857.78
6863.15
6868.53
6873.9
6879.27
6884.62
6889.95
6895.28
6900.63
6905.99
6911.38
6916.74
6922.07
6927.41
6932.79
6938.21
6943.65
6949.06
6954.44
6959.78
6965.09
6970.4
6975.72
6981.07
6986.46
6991.82
6997.14
7002.37
7007.49
7012.73
7018.07
7023.55
7029.2
7034.62
7039.46
7044.17
7049.22
7054.72
7060.54
7065.88
7070.77
7075.56
7080.29
7085.59
7091.47
7096.83
7101.64
7106.25
7110.8
7115.99
7121.71
7127.01
7131.81
7136.37
7140.87
7145.88
7151.29
7156.37
7161.07
7165.59
7170.08
7174.92
7180.04
7185
7189.77
7194.23
7198.49
7203
7207.8
7212.66
7217.66
7221.28
7227.17
4798.99
6588.36
6200.83
5937.79
5972.94
6120.11
6265.31
6374.76
6449.47
6497.94
6528.22
6546.91
6558.79
6566.83
6572.78
6577.53
6581.4
6584.3
6586.36
6588.02
6589.66
6591.44
6593.4
6595.57
6597.82
6600.05
6602.27
6604.6
6607.12
6609.83
6612.67
6615.62
6618.72
6622.05
6625.59
6629.26
6632.94
6636.58
6640.2
6643.84
6647.52
6651.28
6655.1
6659.05
6663.13
6667.36
6671.68
6676.04
6680.4
6684.75
6689.13
6693.57
6698.05
6702.57
6707.11
6711.7
6716.34
6721.04
6725.8
6730.58
6735.37
6740.16
6744.94
6749.75
6754.61
6759.51
6764.45
6769.43
6774.43
6779.47
6784.55
6789.67
6794.85
6800.06
6805.29
6810.5
6815.69
6820.87
6826.06
6831.27
6836.52
6841.8
6847.12
6852.45
6857.79
6863.16
6868.54
6873.92
6879.3
6884.67
6890
6895.33
6900.66
6906.02
6911.39
6916.75
6922.08
6927.43
6932.82
6938.23
6943.66
6949.06
6954.43
6959.78
6965.1
6970.42
6975.75
6981.09
6986.48
6991.83
6997.16
7002.39
7007.52
7012.76
7018.09
7023.57
7029.21
7034.51
7039.51
7044.14
7049.22
7054.75
7060.56
7065.9
7070.78
7075.57
7080.3
7085.6
7091.48
7096.83
7101.64
7106.26
7110.79
7115.99
7121.72
7127.03
7131.84
7136.38
7140.87
7145.89
7151.31
7156.39
7161.07
7165.58
7170.1
7174.99
7180.09
7184.98
7189.73
7194.25
7198.56
7203.06
7207.8
7212.63
7217.67
7221.34
7227.21
4798.99
6586.36
6199.71
5937.5
5972.92
6120.02
6265.09
6374.48
6449.2
6497.66
6527.93
6546.64
6558.58
6566.68
6572.68
6577.49
6581.41
6584.35
6586.44
6588.13
6589.8
6591.58
6593.52
6595.66
6597.89
6600.11
6602.34
6604.67
6607.18
6609.88
6612.72
6615.67
6618.77
6622.1
6625.65
6629.33
6633.02
6636.67
6640.3
6643.95
6647.65
6651.42
6655.26
6659.2
6663.26
6667.46
6671.76
6676.1
6680.46
6684.81
6689.19
6693.62
6698.09
6702.6
6707.14
6711.72
6716.36
6721.06
6725.83
6730.61
6735.4
6740.19
6744.97
6749.78
6754.62
6759.52
6764.46
6769.43
6774.45
6779.5
6784.58
6789.71
6794.89
6800.1
6805.32
6810.54
6815.75
6820.94
6826.13
6831.32
6836.56
6841.84
6847.15
6852.49
6857.84
6863.21
6868.59
6873.97
6879.35
6884.7
6890.03
6895.36
6900.7
6906.05
6911.42
6916.76
6922.09
6927.42
6932.8
6938.22
6943.66
6949.07
6954.44
6959.78
6965.09
6970.4
6975.72
6981.08
6986.48
6991.85
6997.17
7002.39
7007.51
7012.75
7018.09
7023.58
7029.21
7034.51
7039.55
7044.14
7049.22
7054.76
7060.57
7065.9
7070.78
7075.57
7080.3
7085.59
7091.47
7096.84
7101.66
7106.26
7110.78
7115.97
7121.71
7127.04
7131.84
7136.38
7140.87
7145.9
7151.34
7156.41
7161.06
7165.57
7170.11
7175
7180.09
7185
7189.75
7194.27
7198.58
7203.06
7207.78
7212.62
7217.69
7221.35
7227.21
4798.99
6588.51
6200.91
5937.7
5972.76
6119.95
6265.18
6374.67
6449.4
6497.88
6528.17
6546.87
6558.77
6566.82
6572.77
6577.54
6581.41
6584.3
6586.37
6588.03
6589.68
6591.45
6593.4
6595.57
6597.84
6600.08
6602.32
6604.65
6607.17
6609.89
6612.73
6615.69
6618.79
6622.12
6625.67
6629.34
6633.02
6636.66
6640.29
6643.93
6647.61
6651.37
6655.18
6659.11
6663.18
6667.39
6671.69
6676.02
6680.38
6684.74
6689.14
6693.59
6698.07
6702.59
6707.14
6711.73
6716.38
6721.1
6725.86
6730.63
6735.41
6740.18
6744.96
6749.77
6754.61
6759.5
6764.43
6769.4
6774.41
6779.46
6784.55
6789.68
6794.87
6800.09
6805.33
6810.55
6815.75
6820.94
6826.12
6831.33
6836.57
6841.85
6847.18
6852.53
6857.88
6863.25
6868.64
6874.02
6879.39
6884.74
6890.06
6895.38
6900.71
6906.05
6911.41
6916.76
6922.08
6927.43
6932.81
6938.23
6943.67
6949.07
6954.44
6959.79
6965.11
6970.43
6975.75
6981.1
6986.5
6991.86
6997.18
7002.41
7007.53
7012.75
7018.09
7023.59
7029.21
7034.51
7039.52
7044.15
7049.24
7054.77
7060.57
7065.89
7070.79
7075.58
7080.31
7085.61
7091.48
7096.84
7101.67
7106.27
7110.79
7115.98
7121.72
7127.05
7131.85
7136.39
7140.88
7145.91
7151.35
7156.41
7161.05
7165.56
7170.13
7175.03
7180.11
7184.98
7189.73
7194.28
7198.61
7203.09
7207.78
7212.61
7217.7
7221.38
7227.23
4798.99
6586.28
6199.5
5937.25
5972.72
6119.9
6265.03
6374.42
6449.12
6497.58
6527.88
6546.61
6558.54
6566.61
6572.59
6577.4
6581.35
6584.3
6586.4
6588.09
6589.73
6591.48
6593.41
6595.56
6597.82
6600.06
6602.3
6604.63
6607.13
6609.83
6612.67
6615.64
6618.76
6622.1
6625.65
6629.3
6632.94
6636.53
6640.12
6643.76
6647.47
6651.26
6655.11
6659.05
6663.12
6667.33
6671.63
6675.97
6680.32
6684.67
6689.07
6693.52
6698.01
6702.54
6707.09
6711.69
6716.36
6721.08
6725.84
6730.61
6735.39
6740.18
6744.96
6749.75
6754.59
6759.47
6764.39
6769.36
6774.36
6779.41
6784.5
6789.65
6794.85
6800.07
6805.3
6810.52
6815.73
6820.92
6826.11
6831.32
6836.57
6841.85
6847.17
6852.51
6857.87
6863.24
6868.63
6874.02
6879.4
6884.75
6890.08
6895.4
6900.73
6906.07
6911.43
6916.78
6922.11
6927.45
6932.83
6938.25
6943.69
6949.1
6954.47
6959.81
6965.11
6970.42
6975.74
6981.1