/*--------------------------------*- C++ -*----------------------------------*\
  =========                 |
  \\      /  F ield         | OpenFOAM: The Open Source CFD Toolbox
   \\    /   O peration     | Website:  https://openfoam.org
    \\  /    A nd           | Version:  9
     \\/     M anipulation  |
\*---------------------------------------------------------------------------*/
FoamFile
{
    format      ascii;
    class       volScalarField;
    location    "1200";
    object      p;
}
// * * * * * * * * * * * * * * * * * * * * * * * * * * * * * * * * * * * * * //

dimensions      [0 2 -2 0 0 0 0];

internalField   nonuniform List<scalar> 
329700
(
2.68276
1.71212
1.44264
1.42012
1.3971
1.37408
1.35237
1.32268
1.28493
1.24455
1.20592
1.16958
1.13502
1.1036
1.07547
1.04948
1.02498
1.00194
0.98049
0.960204
0.941004
0.923019
0.906519
0.890811
0.8752
0.860038
0.845686
0.832272
0.819305
0.806557
0.794183
0.782327
0.771053
0.760098
0.749248
0.738623
0.728247
0.718316
0.708583
0.698686
0.6889
0.679371
0.670121
0.661189
0.652397
0.643596
0.634954
0.626469
0.618069
0.609904
0.601896
0.59382
0.585816
0.577898
0.570048
0.562368
0.554895
0.547428
0.540004
0.532688
0.525418
0.51817
0.511017
0.503989
0.496934
0.48985
0.482793
0.47581
0.468994
0.462285
0.455802
0.449436
0.442995
0.436517
0.429976
0.423461
0.41706
0.410759
0.404473
0.398183
0.391894
0.385731
0.379718
0.373741
0.367692
0.361604
0.355613
0.349883
0.344334
0.338678
0.332772
0.326722
0.320787
0.315049
0.309444
0.303838
0.298157
0.292503
0.286986
0.281591
0.276257
0.270922
0.26544
0.259868
0.254185
0.248431
0.24292
0.237736
0.233062
0.228732
0.223856
0.21821
0.211628
0.204623
0.199415
0.196107
0.193323
0.189442
0.18177
0.172005
0.164791
0.162019
0.162241
0.161823
0.154544
0.142495
0.133438
0.129807
0.131136
0.132179
0.124492
0.111524
0.102836
0.0993307
0.100263
0.10119
0.094004
0.0824178
0.074885
0.0714926
0.0706647
0.0690072
0.062149
0.0533875
0.0473241
0.0432223
0.0407237
0.0389478
0.0353161
0.0303288
0.0233588
0.0164312
0.0138387
0.0159195
0.0148434
0.00816064
0.00721849
2.68794
1.70888
1.44169
1.41983
1.39696
1.37399
1.35236
1.32264
1.28483
1.24462
1.20594
1.16957
1.13498
1.10358
1.07548
1.04951
1.02498
1.00193
0.980464
0.960187
0.941008
0.923032
0.906514
0.890806
0.875206
0.86005
0.845688
0.832248
0.819264
0.806524
0.794173
0.782338
0.771067
0.760105
0.749263
0.738648
0.72827
0.718312
0.708536
0.698632
0.688879
0.679395
0.670159
0.661199
0.652384
0.643602
0.634992
0.626515
0.6181
0.609891
0.601835
0.593739
0.585766
0.577909
0.570104
0.562434
0.554931
0.54743
0.539997
0.532684
0.525405
0.518139
0.510967
0.503939
0.496911
0.489871
0.48284
0.475843
0.468997
0.462275
0.455812
0.44947
0.443018
0.436497
0.429932
0.42342
0.417045
0.410773
0.404496
0.398196
0.391894
0.385721
0.379712
0.373748
0.367708
0.361625
0.355629
0.349893
0.344344
0.338686
0.332769
0.326709
0.320771
0.315041
0.309452
0.303857
0.298167
0.292491
0.286953
0.28155
0.276229
0.27091
0.265439
0.259878
0.254208
0.248466
0.24295
0.237738
0.23305
0.228727
0.223884
0.218261
0.211646
0.204593
0.19935
0.19602
0.193238
0.189259
0.181698
0.172008
0.164773
0.162055
0.162336
0.16197
0.154679
0.142562
0.133454
0.129776
0.131069
0.132067
0.124367
0.111402
0.102709
0.0992889
0.10031
0.1013
0.0941922
0.0826022
0.0749277
0.0713987
0.0705706
0.0689953
0.0622114
0.0534239
0.0472327
0.0430867
0.0407331
0.0391423
0.0354648
0.0302475
0.0231478
0.0162982
0.0138923
0.0161147
0.014965
0.00813256
0.00719155
2.68167
1.71423
1.44229
1.41972
1.39705
1.37399
1.35236
1.32266
1.2849
1.24454
1.20592
1.16958
1.13505
1.10358
1.07546
1.04949
1.02497
1.00193
0.980472
0.960184
0.941008
0.923034
0.906503
0.890802
0.875206
0.860056
0.845701
0.83226
0.819278
0.806536
0.794173
0.78234
0.771074
0.760122
0.749296
0.738677
0.728276
0.71828
0.708485
0.698601
0.688872
0.679395
0.670146
0.661192
0.652414
0.643663
0.635042
0.626524
0.618073
0.609854
0.601812
0.593742
0.58579
0.577942
0.570126
0.562431
0.554903
0.547385
0.539949
0.532646
0.525382
0.518138
0.510995
0.503972
0.496921
0.489854
0.482818
0.475843
0.469021
0.462316
0.455847
0.449484
0.443007
0.436479
0.429929
0.42343
0.417047
0.410757
0.404478
0.398196
0.391915
0.385751
0.379733
0.373757
0.367708
0.361616
0.355612
0.349858
0.344294
0.33864
0.33274
0.326701
0.32078
0.315061
0.309481
0.303889
0.298192
0.292506
0.286952
0.281535
0.276208
0.270893
0.265455
0.259932
0.25427
0.24849
0.242898
0.237656
0.23301
0.228759
0.223982
0.218324
0.211599
0.204494
0.199222
0.19595
0.193266
0.189224
0.181571
0.171866
0.164731
0.162116
0.162452
0.162305
0.154869
0.14246
0.133423
0.129719
0.130941
0.132002
0.124275
0.111275
0.102555
0.0992581
0.100407
0.101422
0.0943491
0.0827319
0.0749116
0.0712894
0.070513
0.0690297
0.0623034
0.0534667
0.0471352
0.0429616
0.0407807
0.0393635
0.0356029
0.0301258
0.0229039
0.0161947
0.0139925
0.0163156
0.0150633
0.00808207
0.00716338
2.67692
1.7166
1.44349
1.4201
1.39734
1.37403
1.35246
1.32275
1.28491
1.24465
1.20599
1.16957
1.13502
1.10358
1.07549
1.04954
1.02497
1.00193
0.980476
0.960187
0.941015
0.923046
0.906511
0.890813
0.875211
0.860051
0.845689
0.83224
0.81926
0.806526
0.794171
0.782342
0.771075
0.760123
0.749286
0.738658
0.728259
0.718263
0.708478
0.698617
0.688912
0.679439
0.670178
0.661213
0.652418
0.643652
0.635017
0.626495
0.618064
0.609868
0.601826
0.59373
0.585763
0.57793
0.570141
0.562451
0.554922
0.547416
0.539999
0.532691
0.525371
0.518066
0.510903
0.503905
0.496901
0.489877
0.482862
0.475887
0.469058
0.462348
0.455873
0.449492
0.442989
0.436442
0.429902
0.423428
0.417057
0.410758
0.404467
0.398182
0.391913
0.385766
0.37975
0.373768
0.367708
0.361609
0.355613
0.349868
0.344308
0.338653
0.332738
0.326677
0.320749
0.315051
0.309502
0.30393
0.298222
0.292508
0.286928
0.281496
0.276166
0.270856
0.265437
0.259944
0.254301
0.248522
0.242909
0.237651
0.233012
0.228783
0.224036
0.21836
0.211573
0.204422
0.199133
0.195911
0.193277
0.189169
0.181525
0.171821
0.164738
0.162188
0.162575
0.162594
0.154974
0.14233
0.133413
0.129693
0.130843
0.131944
0.12417
0.111141
0.102461
0.0992741
0.100488
0.101499
0.0944402
0.0828326
0.0749334
0.0712152
0.0704628
0.069067
0.0623815
0.0534989
0.0470554
0.0428417
0.0408186
0.0395861
0.0357274
0.0299788
0.0226672
0.0160946
0.0140773
0.0165067
0.0151353
0.00799998
0.00712307
2.68583
1.71181
1.44162
1.41944
1.39692
1.37385
1.35234
1.32258
1.28479
1.24465
1.20595
1.16954
1.13499
1.10356
1.07548
1.04953
1.02496
1.00192
0.980465
0.960177
0.941014
0.923041
0.906493
0.890789
0.875186
0.86004
0.845694
0.832248
0.819267
0.806528
0.794169
0.782345
0.771092
0.760151
0.749317
0.738686
0.728273
0.718249
0.708426
0.69855
0.688845
0.67938
0.670162
0.661272
0.652515
0.643717
0.635028
0.62648
0.618059
0.609863
0.601803
0.593707
0.585762
0.577944
0.570137
0.562429
0.554918
0.547435
0.540016
0.53268
0.52533
0.518028
0.51089
0.50391
0.496917
0.489901
0.482888
0.475912
0.469073
0.46235
0.455857
0.449467
0.442966
0.436435
0.429923
0.423463
0.417067
0.410731
0.404434
0.39817
0.391933
0.385799
0.379768
0.373765
0.367697
0.361613
0.355629
0.349867
0.344278
0.338614
0.332711
0.32667
0.320756
0.315067
0.309523
0.30395
0.298231
0.292504
0.286916
0.281485
0.276157
0.270847
0.265439
0.25997
0.254349
0.248565
0.242913
0.237608
0.232961
0.228767
0.22406
0.218395
0.21157
0.204369
0.199076
0.195885
0.193254
0.189082
0.181436
0.171804
0.164757
0.162268
0.162699
0.162793
0.155042
0.142235
0.133391
0.129687
0.130765
0.131845
0.124049
0.111071
0.102443
0.0993063
0.100527
0.101495
0.0944804
0.0829597
0.0749988
0.0711413
0.0703674
0.0690684
0.0624941
0.0536116
0.0470247
0.0427061
0.0408089
0.03977
0.0358595
0.0298544
0.0224231
0.016009
0.0142009
0.0167105
0.0152011
0.0079071
0.00707791
2.67672
1.71677
1.44354
1.42007
1.39735
1.37402
1.35246
1.32274
1.28492
1.24467
1.206
1.16957
1.13502
1.10357
1.07549
1.04954
1.02498
1.00194
0.980481
0.960185
0.941015
0.923051
0.906512
0.890812
0.875205
0.860044
0.845684
0.83223
0.819256
0.806526
0.794168
0.782345
0.771086
0.760134
0.749299
0.73868
0.72828
0.718264
0.708453
0.698585
0.68889
0.679443
0.670209
0.661247
0.652435
0.643637
0.634992
0.626502
0.6181
0.609873
0.601775
0.593679
0.585769
0.577986
0.570186
0.562459
0.554919
0.54742
0.540006
0.532694
0.525352
0.518026
0.510856
0.503865
0.496899
0.489911
0.482909
0.475939
0.469101
0.462376
0.455862
0.449445
0.442948
0.436435
0.429935
0.42347
0.417046
0.410686
0.404402
0.398166
0.391954
0.385825
0.379778
0.37376
0.367684
0.361603
0.355636
0.349886
0.344297
0.33862
0.332697
0.32664
0.320727
0.315057
0.30954
0.303989
0.298267
0.292515
0.286901
0.281453
0.27613
0.270836
0.265435
0.259959
0.254333
0.248569
0.242944
0.23765
0.232991
0.228769
0.224046
0.218391
0.211567
0.204353
0.199052
0.195854
0.193215
0.189009
0.181345
0.171762
0.164792
0.16234
0.162814
0.162932
0.155047
0.142103
0.133346
0.129735
0.130767
0.131766
0.123898
0.110961
0.102466
0.0994415
0.100606
0.101426
0.094405
0.0830206
0.075106
0.0711538
0.070295
0.0690091
0.062556
0.0537573
0.0470572
0.04257
0.0407486
0.0399177
0.0359926
0.0297661
0.0222077
0.0158847
0.0142803
0.0169255
0.0152768
0.00780652
0.00702257
2.68102
1.71483
1.44243
1.41968
1.39707
1.37396
1.35233
1.32264
1.28489
1.24458
1.20595
1.16958
1.13503
1.10355
1.07546
1.04951
1.02498
1.00194
0.980467
0.960175
0.94101
0.923044
0.906503
0.890796
0.875192
0.860042
0.845691
0.832246
0.819263
0.80652
0.79416
0.782337
0.771081
0.76013
0.749304
0.738701
0.728305
0.718291
0.708476
0.698583
0.688852
0.679376
0.670129
0.661207
0.652472
0.643718
0.635052
0.626509
0.618069
0.609851
0.601794
0.593726
0.585795
0.57795
0.570099
0.562387
0.554922
0.547483
0.540066
0.532707
0.525324
0.517987
0.51083
0.503856
0.4969
0.489915
0.482921
0.475964
0.469131
0.462402
0.45587
0.449426
0.442913
0.4364
0.429923
0.423494
0.417087
0.410717
0.404411
0.398151
0.391927
0.385803
0.379773
0.373777
0.36771
0.361621
0.355639
0.349877
0.344279
0.3386
0.332686
0.326644
0.32074
0.315067
0.309538
0.303979
0.298258
0.292511
0.286901
0.281454
0.276133
0.270834
0.265421
0.259942
0.254341
0.248617
0.243005
0.23768
0.232957
0.228689
0.223979
0.218383
0.211614
0.204413
0.199074
0.195817
0.193138
0.188921
0.181321
0.171762
0.164866
0.162356
0.162799
0.162915
0.154999
0.142044
0.133367
0.129809
0.130753
0.131651
0.123773
0.110938
0.102579
0.0995873
0.100601
0.101262
0.094301
0.0831299
0.0752754
0.0711745
0.0701616
0.0689063
0.0626679
0.0539934
0.0471236
0.042397
0.0406218
0.040019
0.0361425
0.0297082
0.0219736
0.015761
0.0144052
0.0171604
0.0153346
0.00768322
0.00696663
2.6859
1.71073
1.44186
1.41969
1.39705
1.37397
1.35235
1.32262
1.28484
1.24466
1.20598
1.16956
1.13496
1.10356
1.07548
1.04954
1.025
1.00194
0.980467
0.960184
0.941014
0.923043
0.906513
0.890797
0.875194
0.860042
0.845683
0.832234
0.819244
0.806506
0.794156
0.782332
0.771074
0.760119
0.74929
0.738696
0.728317
0.718314
0.708503
0.69862
0.688901
0.679405
0.670111
0.661159
0.652417
0.643687
0.635053
0.626534
0.618097
0.609857
0.601779
0.593707
0.585784
0.577953
0.570122
0.562422
0.554942
0.547471
0.54003
0.532682
0.525336
0.518028
0.510857
0.503848
0.496877
0.489907
0.482953
0.476016
0.469151
0.462374
0.45582
0.449391
0.442917
0.436436
0.429961
0.423509
0.417074
0.410686
0.404375
0.398116
0.391905
0.385796
0.379781
0.373796
0.367726
0.361633
0.355654
0.349897
0.344295
0.338599
0.332666
0.326615
0.320718
0.315064
0.309555
0.304008
0.298283
0.292515
0.28688
0.281428
0.276127
0.270849
0.265427
0.259917
0.254305
0.248608
0.243043
0.237749
0.233006
0.228689
0.223954
0.218352
0.211592
0.204407
0.199068
0.195821
0.193166
0.188928
0.181418
0.171732
0.164928
0.162447
0.162879
0.162908
0.154862
0.141863
0.133332
0.129936
0.130825
0.131553
0.123607
0.110882
0.102735
0.0998364
0.100658
0.101057
0.094114
0.0831836
0.0754341
0.0712166
0.0700454
0.0687875
0.0627573
0.0542356
0.0471841
0.0421902
0.0404898
0.0401469
0.0362963
0.0296347
0.021739
0.01563
0.0145368
0.0174176
0.0153828
0.00752319
0.00689812
2.6776
1.71673
1.44334
1.4199
1.39724
1.37399
1.35238
1.32269
1.28491
1.2446
1.20599
1.16959
1.13498
1.10359
1.07548
1.04952
1.025
1.00195
0.98047
0.960189
0.941009
0.923039
0.906523
0.890793
0.875184
0.860035
0.845684
0.832253
0.819268
0.806522
0.794161
0.78232
0.771059
0.760114
0.749286
0.738686
0.728306
0.718316
0.708529
0.698656
0.688935
0.679403
0.670073
0.661123
0.652403
0.643693
0.635067
0.626542
0.618093
0.609862
0.60181
0.593758
0.585812
0.577921
0.570043
0.562332
0.554887
0.547489
0.540109
0.532767
0.52539
0.518034
0.510817
0.503784
0.496819
0.489867
0.482945
0.476043
0.469194
0.462423
0.455854
0.449385
0.442883
0.436403
0.429952
0.423532
0.417116
0.410733
0.4044
0.398099
0.391858
0.385746
0.379756
0.373806
0.367752
0.361652
0.355659
0.349888
0.344272
0.338571
0.332655
0.326632
0.320756
0.31509
0.309552
0.303986
0.298265
0.292512
0.286886
0.281432
0.276128
0.270847
0.265413
0.259897
0.254304
0.248643
0.243106
0.237802
0.232999
0.228613
0.223863
0.21831
0.211622
0.204466
0.199092
0.195775
0.193101
0.189007
0.181626
0.171715
0.164937
0.162429
0.162801
0.162786
0.15472
0.141762
0.13335
0.130062
0.130888
0.13149
0.123505
0.110873
0.10292
0.100059
0.100664
0.100833
0.0939189
0.0832345
0.0756358
0.0713096
0.0699253
0.0686417
0.0628366
0.0544873
0.0472855
0.0420181
0.0403092
0.0401677
0.0364221
0.0296225
0.0215487
0.0155173
0.0146503
0.0176076
0.0153989
0.00739261
0.00684705
2.68183
1.71418
1.44204
1.41966
1.39708
1.37403
1.35233
1.32266
1.28494
1.24455
1.20597
1.16962
1.13501
1.10359
1.07545
1.04948
1.02502
1.00198
0.980493
0.960209
0.941006
0.923018
0.906509
0.890784
0.875185
0.860038
0.845679
0.832242
0.819253
0.806511
0.794162
0.782326
0.771061
0.760105
0.749274
0.73868
0.72832
0.718352
0.708558
0.698662
0.688927
0.679395
0.670081
0.661134
0.652381
0.643626
0.635002
0.62652
0.618122
0.609917
0.601856
0.593775
0.585794
0.577882
0.570023
0.562353
0.554927
0.547512
0.540093
0.532724
0.52536
0.518045
0.510858
0.503823
0.496831
0.489863
0.482953
0.476069
0.469207
0.462398
0.455802
0.449344
0.442887
0.436436
0.429973
0.423527
0.417097
0.410713
0.404376
0.398071
0.391831
0.385728
0.379751
0.373816
0.367771
0.361671
0.355679
0.349915
0.344296
0.338578
0.332638
0.326602
0.320733
0.315084
0.309555
0.303995
0.298273
0.292512
0.286881
0.281429
0.276139
0.270873
0.265422
0.259873
0.25427
0.248636
0.243148
0.237865
0.233036
0.228606
0.223816
0.218274
0.211613
0.204444
0.199082
0.195753
0.19304
0.189318
0.181909
0.171589
0.164893
0.162465
0.162798
0.162676
0.154502
0.141542
0.133296
0.130205
0.13101
0.131446
0.123381
0.11084
0.103106
0.100351
0.100762
0.100626
0.0936723
0.0832016
0.0757765
0.0714185
0.0698635
0.0684988
0.0628419
0.0546752
0.0473868
0.041893
0.040167
0.040181
0.0364987
0.0295957
0.0214165
0.0154379
0.0147315
0.0177583
0.0154015
0.00725896
0.00678291
2.68837
1.70893
1.44153
1.41977
1.39692
1.37395
1.3523
1.32261
1.28483
1.2446
1.20598
1.1696
1.13495
1.10358
1.07548
1.0495
1.025
1.00193
0.980452
0.960187
0.941003
0.923028
0.906528
0.8908
0.875191
0.860033
0.84567
0.832246
0.819267
0.806528
0.79417
0.782315
0.771041
0.760097
0.749274
0.738678
0.728315
0.718354
0.70858
0.698686
0.688926
0.679377
0.670048
0.661114
0.652377
0.643639
0.635027
0.626535
0.618119
0.609917
0.601869
0.593784
0.585774
0.577839
0.569989
0.562336
0.554906
0.547487
0.540087
0.532756
0.525427
0.51811
0.510886
0.503806
0.496777
0.489793
0.482896
0.476039
0.469217
0.462448
0.455861
0.449375
0.442891
0.43643
0.42997
0.423536
0.41711
0.410723
0.404388
0.398083
0.391827
0.385705
0.37972
0.373798
0.367778
0.361699
0.355702
0.34991
0.344265
0.33855
0.332633
0.326623
0.320769
0.315108
0.30955
0.30397
0.298243
0.292492
0.28688
0.281435
0.276148
0.270891
0.265428
0.259867
0.254264
0.248638
0.24318
0.237903
0.233051
0.22859
0.223749
0.218217
0.211598
0.204417
0.199092
0.195735
0.192833
0.18945
0.182464
0.171524
0.164833
0.162411
0.162656
0.162478
0.154316
0.141435
0.133312
0.130334
0.131097
0.131441
0.123362
0.11088
0.103287
0.100552
0.100784
0.100457
0.0934835
0.0831696
0.0758963
0.0715176
0.0698193
0.0684044
0.0628552
0.0547994
0.0474589
0.0418107
0.0400399
0.0401308
0.0365142
0.0295753
0.0213396
0.0154111
0.0147815
0.017795
0.0153385
0.00717037
0.00675382
2.68292
1.71205
1.44255
1.4201
1.39708
1.37406
1.35235
1.32268
1.28495
1.24455
1.20597
1.16962
1.13501
1.1036
1.07547
1.04948
1.025
1.00194
0.980475
0.960202
0.941004
0.923024
0.906529
0.890813
0.875202
0.860033
0.845666
0.832253
0.819295
0.806556
0.794175
0.782308
0.771031
0.760078
0.749232
0.738628
0.728289
0.718382
0.708665
0.698774
0.688969
0.679368
0.670035
0.661088
0.652322
0.643561
0.634962
0.626509
0.618138
0.609968
0.60192
0.593819
0.585797
0.577847
0.569984
0.562326
0.554904
0.547491
0.540075
0.532713
0.525372
0.518091
0.510937
0.503899
0.496843
0.489796
0.482871
0.476029
0.469229
0.462448
0.455825
0.44933
0.442887
0.436469
0.430002
0.423522
0.417058
0.410672
0.404381
0.398125
0.391878
0.385722
0.379698
0.373757
0.367749
0.361704
0.355744
0.349974
0.344315
0.338563
0.332606
0.326584
0.320745
0.315099
0.309543
0.303964
0.298242
0.292494
0.286887
0.281442
0.276159
0.270913
0.26544
0.259855
0.254242
0.248632
0.243208
0.23794
0.233066
0.228572
0.223699
0.218193
0.211611
0.204403
0.199081
0.195698
0.19287
0.189528
0.182167
0.172097
0.16505
0.162396
0.162522
0.162275
0.154111
0.141291
0.133276
0.130409
0.131148
0.131419
0.12336
0.110969
0.103481
0.100755
0.100834
0.100317
0.0933232
0.0831406
0.0759702
0.071574
0.0697706
0.0683023
0.0628387
0.0548923
0.047528
0.041775
0.0399621
0.0400817
0.0364952
0.029546
0.0213141
0.0154344
0.014811
0.0177605
0.0152328
0.00707471
0.00672043
2.6888
1.70864
1.44151
1.41978
1.39685
1.37394
1.3523
1.3226
1.28482
1.24461
1.20599
1.16961
1.13496
1.10359
1.07548
1.0495
1.02498
1.00191
0.980444
0.960183
0.941009
0.923039
0.906543
0.890819
0.875198
0.86002
0.845651
0.832241
0.819285
0.806555
0.794183
0.782305
0.771013
0.760073
0.749269
0.7387
0.728356
0.718398
0.708608
0.698686
0.688897
0.67934
0.670065
0.661141
0.652357
0.643558
0.634942
0.6265
0.618146
0.609984
0.601916
0.593784
0.585751
0.577826
0.570001
0.562359
0.554919
0.547479
0.54006
0.532722
0.525404
0.51812
0.510937
0.503866
0.49679
0.489745
0.482835
0.47602
0.469261
0.462516
0.455887
0.449356
0.442877
0.436448
0.429988
0.423523
0.417069
0.410673
0.404374
0.398123
0.391885
0.385733
0.379709
0.37376
0.367749
0.361699
0.355733
0.349956
0.344288
0.338544
0.332615
0.326619
0.320787
0.315115
0.309527
0.30393
0.298204
0.292469
0.286886
0.281463
0.276184
0.270933
0.265437
0.259821
0.254209
0.24863
0.243246
0.237992
0.233087
0.228546
0.223635
0.21813
0.211586
0.204406
0.199104
0.195731
0.192914
0.189327
0.182045
0.172778
0.165304
0.162371
0.162357
0.162066
0.153927
0.141169
0.133253
0.130486
0.131222
0.131485
0.123446
0.111067
0.103626
0.100879
0.100848
0.100242
0.0932247
0.0830888
0.0759895
0.0715983
0.0697495
0.0682714
0.0628275
0.054903
0.0475418
0.0417591
0.0399259
0.040036
0.0364463
0.0294948
0.0212982
0.0154722
0.0148116
0.0176658
0.015103
0.00700644
0.00669969
2.68297
1.71188
1.44255
1.42019
1.39711
1.37406
1.35234
1.32266
1.28495
1.24459
1.20599
1.16964
1.13504
1.1036
1.07546
1.04947
1.02496
1.00192
0.980461
0.960194
0.941017
0.92305
0.906559
0.890852
0.875211
0.860002
0.845625
0.832241
0.819329
0.806612
0.79421
0.782302
0.770992
0.760035
0.749229
0.738673
0.72835
0.718409
0.708629
0.698716
0.688925
0.679351
0.670068
0.661124
0.652315
0.643503
0.634901
0.626476
0.618141
0.610017
0.601985
0.593857
0.585799
0.577838
0.569985
0.562333
0.554899
0.547466
0.54005
0.532707
0.525378
0.51809
0.51093
0.503906
0.496859
0.489792
0.482834
0.47599
0.469236
0.462505
0.455879
0.449351
0.442884
0.436463
0.429988
0.423493
0.417024
0.410644
0.404387
0.398172
0.391926
0.385733
0.379675
0.373716
0.367732
0.361723
0.355788
0.350023
0.344339
0.338558
0.332589
0.326561
0.320728
0.315086
0.309534
0.303954
0.298221
0.29247
0.286882
0.281471
0.276197
0.270949
0.265449
0.259818
0.254198
0.248614
0.243226
0.237987
0.233095
0.228556
0.223642
0.218117
0.211561
0.204388
0.199083
0.195722
0.192898
0.189193
0.182074
0.173202
0.165533
0.162396
0.162266
0.161904
0.15376
0.141049
0.133188
0.130478
0.13124
0.131541
0.123563
0.111224
0.103764
0.100948
0.100865
0.100232
0.0932127
0.0830653
0.0759313
0.0715295
0.0697179
0.0682915
0.0628448
0.0548755
0.0475043
0.0417684
0.039958
0.0400265
0.036387
0.0294327
0.0213149
0.0155607
0.0148101
0.0174956
0.0149209
0.00694801
0.00669501
2.68877
1.7086
1.44155
1.41981
1.39685
1.37393
1.35229
1.32258
1.28482
1.24466
1.206
1.16962
1.135
1.10358
1.07548
1.04949
1.02495
1.00191
0.980445
0.960178
0.941019
0.923052
0.906545
0.890835
0.875189
0.859982
0.845622
0.832247
0.819329
0.806597
0.794187
0.782287
0.770976
0.760009
0.749229
0.738737
0.72846
0.718486
0.708602
0.698621
0.688853
0.679351
0.670132
0.661175
0.652305
0.64344
0.634853
0.626479
0.61817
0.610021
0.601933
0.593781
0.585758
0.577853
0.570038
0.562376
0.554898
0.547446
0.540049
0.532742
0.525422
0.518104
0.510899
0.503852
0.496817
0.489776
0.482835
0.47601
0.469273
0.462544
0.455904
0.449359
0.442875
0.436445
0.429969
0.423481
0.417022
0.410643
0.404382
0.39817
0.391938
0.385759
0.379702
0.373722
0.367718
0.361702
0.355769
0.350013
0.344339
0.338573
0.332616
0.326582
0.320729
0.315072
0.309513
0.303926
0.298193
0.292451
0.286892
0.281519
0.27625
0.270961
0.265408
0.259743
0.25415
0.248633
0.243283
0.238036
0.2331
0.228514
0.223595
0.218077
0.211538
0.204407
0.199101
0.195734
0.1929
0.189152
0.182068
0.173401
0.165761
0.162511
0.162246
0.161791
0.15361
0.140923
0.133136
0.130492
0.131286
0.131654
0.123725
0.111374
0.103864
0.10096
0.100851
0.100246
0.0932206
0.0830139
0.0758268
0.0714364
0.0697114
0.0683521
0.0628451
0.0547811
0.0474288
0.0418125
0.0400598
0.0400419
0.0362923
0.0293346
0.0213277
0.0156496
0.0147976
0.0173116
0.0147358
0.00690018
0.00669503
2.68292
1.71188
1.4426
1.4202
1.3971
1.37405
1.35233
1.32264
1.28494
1.24461
1.20599
1.16964
1.13505
1.10359
1.07545
1.04945
1.02494
1.00191
0.980463
0.960189
0.941024
0.923063
0.906568
0.890865
0.875209
0.859983
0.845608
0.832242
0.819357
0.806641
0.794217
0.782297
0.770982
0.760018
0.749214
0.738686
0.728399
0.718444
0.70858
0.698614
0.688861
0.679383
0.670198
0.661211
0.652286
0.643379
0.634799
0.626466
0.618204
0.610088
0.60199
0.593797
0.585738
0.577825
0.570037
0.56241
0.554941
0.547469
0.540049
0.532734
0.525403
0.518063
0.510844
0.50382
0.496842
0.489852
0.482895
0.476009
0.469228
0.462498
0.455899
0.449391
0.442907
0.436441
0.429934
0.423441
0.417
0.410651
0.404409
0.398197
0.391942
0.385739
0.379665
0.373683
0.367699
0.361709
0.355807
0.35007
0.344383
0.338591
0.332604
0.326547
0.320694
0.315056
0.309523
0.303951
0.298215
0.29246
0.286895
0.281531
0.276257
0.270958
0.265401
0.259733
0.254143
0.248618
0.243249
0.238003
0.233099
0.228552
0.223629
0.21807
0.211491
0.204348
0.199095
0.195788
0.192949
0.189191
0.182129
0.173325
0.165883
0.162685
0.162348
0.161782
0.153516
0.140792
0.133013
0.130411
0.131296
0.131799
0.123929
0.11153
0.103906
0.100899
0.100845
0.100364
0.0933209
0.0829538
0.0756338
0.0712757
0.0697351
0.0685183
0.0629002
0.0546222
0.0472813
0.0418618
0.0402021
0.0400887
0.036212
0.0292426
0.021365
0.0157776
0.0147784
0.0170718
0.014539
0.00689097
0.00671487
2.68864
1.70858
1.44159
1.41984
1.39688
1.37395
1.35227
1.32256
1.28482
1.24466
1.20602
1.16963
1.13499
1.10359
1.07546
1.04947
1.02495
1.0019
0.980442
0.960185
0.941024
0.923056
0.906556
0.890835
0.875183
0.859973
0.845608
0.832249
0.819345
0.806611
0.794197
0.782285
0.770964
0.759998
0.74922
0.738748
0.728496
0.718521
0.708604
0.698588
0.688814
0.679321
0.670182
0.661213
0.652289
0.643373
0.634788
0.626454
0.618196
0.610089
0.601993
0.593787
0.585709
0.577789
0.570004
0.562389
0.554941
0.547478
0.540066
0.532766
0.525436
0.518077
0.510828
0.503768
0.496793
0.489841
0.482917
0.476048
0.469264
0.46252
0.455907
0.449387
0.442884
0.436412
0.429922
0.423447
0.417013
0.410661
0.404406
0.39819
0.391944
0.385757
0.379691
0.3737
0.367701
0.361696
0.355791
0.350063
0.344383
0.338603
0.33262
0.326551
0.320683
0.315037
0.309495
0.303914
0.298186
0.292461
0.286943
0.281609
0.276313
0.270947
0.26533
0.259657
0.254115
0.248647
0.243297
0.238021
0.233087
0.228538
0.223596
0.218036
0.211472
0.204313
0.199112
0.195847
0.192974
0.189376
0.182378
0.173011
0.165927
0.162866
0.162437
0.16173
0.153405
0.140699
0.132955
0.130387
0.131325
0.13193
0.12413
0.111699
0.103947
0.10081
0.100804
0.100443
0.0933818
0.0828597
0.0754159
0.0711366
0.0698033
0.0686641
0.0628871
0.0544285
0.0471629
0.0420016
0.04042
0.04011
0.0360559
0.0291351
0.0214418
0.0159161
0.0147452
0.0168383
0.0143656
0.00689335
0.00673851
2.68281
1.71206
1.44264
1.42014
1.39709
1.37405
1.35229
1.32261
1.28494
1.2446
1.20602
1.16965
1.13503
1.1036
1.07544
1.04943
1.02494
1.00191
0.980456
0.960197
0.941028
0.923064
0.906583
0.890863
0.875207
0.859982
0.845597
0.832241
0.819363
0.806645
0.794229
0.782304
0.770985
0.760021
0.749213
0.738692
0.728408
0.718446
0.708577
0.698595
0.688831
0.679363
0.670223
0.66124
0.652283
0.643342
0.634761
0.62645
0.618212
0.610117
0.602032
0.59383
0.585725
0.577767
0.569972
0.562382
0.554972
0.54752
0.540091
0.532767
0.52542
0.518043
0.510791
0.503752
0.496821
0.489901
0.482963
0.47605
0.469231
0.462491
0.455908
0.449398
0.442873
0.436373
0.429891
0.423446
0.417033
0.410679
0.404406
0.398173
0.391926
0.385747
0.379683
0.373691
0.367689
0.361691
0.355812
0.350104
0.344413
0.338612
0.332612
0.326537
0.32068
0.315049
0.309517
0.303935
0.298196
0.292457
0.286938
0.281612
0.276304
0.270924
0.265314
0.25966
0.254128
0.248641
0.243264
0.23798
0.233078
0.228578
0.223619
0.218015
0.211424
0.204257
0.199138
0.195942
0.193021
0.189688
0.182611
0.172595
0.165779
0.162929
0.162522
0.161769
0.153381
0.140605
0.132814
0.130255
0.131313
0.132117
0.124389
0.111851
0.103915
0.100657
0.100772
0.100614
0.0934916
0.0827057
0.0751301
0.070996
0.069926
0.0689029
0.0629157
0.0541907
0.0470198
0.0421527
0.0406115
0.0400933
0.0359186
0.0290964
0.0215764
0.0160734
0.0146727
0.0165501
0.014219
0.00697683
0.00679116
2.68763
1.70897
1.44194
1.41995
1.39696
1.37398
1.35227
1.32254
1.28484
1.24465
1.20605
1.16964
1.13496
1.10359
1.07546
1.04946
1.02496
1.00191
0.980441
0.960194
0.941029
0.923054
0.906569
0.890832
0.875179
0.859974
0.845603
0.832249
0.819347
0.80661
0.794206
0.782297
0.770976
0.760006
0.74921
0.738726
0.728472
0.718511
0.708616
0.6986
0.688823
0.679333
0.670177
0.661187
0.652251
0.643348
0.634798
0.62649
0.618227
0.61009
0.601975
0.593785
0.585724
0.577791
0.569979
0.562351
0.554927
0.547518
0.540138
0.532826
0.525457
0.51805
0.510773
0.503714
0.49678
0.489882
0.482978
0.476088
0.469265
0.462502
0.45589
0.449361
0.442836
0.436355
0.429904
0.423477
0.417062
0.410698
0.404408
0.398155
0.391913
0.385762
0.379718
0.373719
0.367687
0.361657
0.355778
0.35009
0.34441
0.338612
0.332616
0.326545
0.320687
0.315046
0.309494
0.303894
0.298168
0.292472
0.286994
0.281678
0.276332
0.270896
0.265257
0.259612
0.254111
0.24864
0.243271
0.237996
0.233098
0.228599
0.223605
0.21795
0.211369
0.204251
0.199208
0.196055
0.192986
0.189636
0.182919
0.172344
0.165696
0.162955
0.162505
0.161683
0.153302
0.140572
0.132783
0.130216
0.131331
0.132258
0.124608
0.112006
0.1039
0.10051
0.100712
0.100689
0.0935079
0.0825229
0.0748748
0.0709335
0.0701
0.069068
0.0628351
0.0539491
0.0469603
0.0424029
0.0408395
0.0400193
0.0356984
0.0290519
0.02178
0.0162505
0.0145649
0.0162571
0.0140995
0.00707381
0.0068475
2.68278
1.71208
1.44267
1.42017
1.39711
1.37406
1.35226
1.32257
1.28494
1.24459
1.20603
1.16966
1.135
1.10359
1.07544
1.04943
1.02496
1.00192
0.980457
0.960207
0.941035
0.923062
0.906587
0.890851
0.875197
0.859985
0.845599
0.832242
0.819356
0.806635
0.794231
0.782313
0.771
0.760043
0.749229
0.73868
0.728364
0.718409
0.708594
0.698647
0.688872
0.679362
0.670136
0.661151
0.652256
0.643386
0.634818
0.626469
0.618194
0.610096
0.602045
0.593879
0.585767
0.577758
0.569916
0.562321
0.554955
0.547568
0.540151
0.532792
0.525413
0.518036
0.510797
0.503751
0.496801
0.489886
0.482977
0.476083
0.469253
0.462493
0.455884
0.449347
0.442809
0.436323
0.429889
0.423493
0.417093
0.410724
0.404412
0.398135
0.391887
0.385748
0.379715
0.373724
0.367691
0.36166
0.355789
0.350108
0.344419
0.338605
0.332609
0.326551
0.320708
0.315077
0.309517
0.303895
0.298149
0.292441
0.286969
0.281671
0.276337
0.270908
0.265273
0.259621
0.254097
0.248594
0.243227
0.237991
0.233132
0.228644
0.223602
0.217882
0.211313
0.204266
0.199299
0.196202
0.193176
0.18959
0.18233
0.172594
0.165743
0.162915
0.162464
0.161662
0.153295
0.140547
0.132708
0.130112
0.131317
0.132419
0.124834
0.112134
0.103853
0.100351
0.100663
0.100786
0.0935076
0.0822852
0.0746215
0.0709283
0.0703084
0.0692542
0.0627705
0.0537174
0.0469428
0.0426802
0.0409983
0.0398355
0.0354876
0.0291355
0.0220764
0.0164306
0.0144037
0.0159228
0.0140339
0.00727055
0.00692382
2.68855
1.70859
1.4416
1.41985
1.39693
1.37397
1.35223
1.32251
1.28483
1.24465
1.20605
1.16965
1.13493
1.10358
1.07546
1.04946
1.02497
1.0019
0.980436
0.960203
0.941036
0.923055
0.906571
0.89082
0.87517
0.859977
0.84561
0.832251
0.819337
0.806601
0.794213
0.782318
0.771012
0.76005
0.749231
0.738666
0.728337
0.718396
0.708629
0.698712
0.688919
0.679359
0.670064
0.661089
0.652264
0.643455
0.634874
0.626484
0.618182
0.610047
0.601966
0.593818
0.585757
0.577787
0.569955
0.562332
0.554946
0.547571
0.540166
0.532805
0.525425
0.518041
0.510786
0.503728
0.496778
0.48988
0.482996
0.476113
0.469278
0.462498
0.455853
0.449293
0.442763
0.436309
0.429911
0.423532
0.417128
0.410744
0.404406
0.398109
0.391866
0.385755
0.379747
0.373755
0.36769
0.361625
0.355747
0.350083
0.344413
0.338613
0.332631
0.326578
0.320725
0.315074
0.309498
0.303869
0.298137
0.292458
0.287008
0.28171
0.276351
0.270889
0.265232
0.259575
0.254057
0.24857
0.243235
0.238033
0.233175
0.228658
0.223575
0.217822
0.21129
0.204333
0.199408
0.196322
0.193263
0.1893
0.181914
0.173033
0.165905
0.162882
0.162349
0.161533
0.153231
0.140568
0.132747
0.130116
0.13133
0.132508
0.12497
0.112237
0.10384
0.10023
0.100578
0.100758
0.0934112
0.0820896
0.0744812
0.0710047
0.0705127
0.0693388
0.0626244
0.0535286
0.0470158
0.0429673
0.0411163