/*--------------------------------*- C++ -*----------------------------------*\
  =========                 |
  \\      /  F ield         | OpenFOAM: The Open Source CFD Toolbox
   \\    /   O peration     | Website:  https://openfoam.org
    \\  /    A nd           | Version:  9
     \\/     M anipulation  |
\*---------------------------------------------------------------------------*/
FoamFile
{
    format      ascii;
    class       volScalarField;
    location    "1200";
    object      k;
}
// * * * * * * * * * * * * * * * * * * * * * * * * * * * * * * * * * * * * * //

dimensions      [0 2 -2 0 0 0 0];

internalField   nonuniform List<scalar> 
82350
(
0.598803
0.578531
0.492025
0.447084
0.450436
0.472524
0.49503
0.512404
0.524474
0.532394
0.537386
0.540488
0.542459
0.543784
0.544759
0.545548
0.546206
0.546701
0.547048
0.547322
0.547591
0.547884
0.548213
0.548577
0.548954
0.549325
0.549694
0.550079
0.550495
0.550945
0.55142
0.551916
0.552437
0.552995
0.553589
0.554203
0.55482
0.55543
0.556039
0.55665
0.557268
0.557899
0.598609
0.578834
0.4922
0.447106
0.450407
0.47251
0.495041
0.512431
0.524505
0.532428
0.537425
0.540528
0.542495
0.543815
0.544786
0.545571
0.546226
0.546717
0.547061
0.547332
0.547599
0.547891
0.54822
0.548587
0.548967
0.549339
0.549704
0.550083
0.550496
0.550945
0.551424
0.551925
0.552452
0.553015
0.55361
0.554221
0.55483
0.555431
0.556031
0.556639
0.557258
0.557892
0.598836
0.578527
0.491987
0.447037
0.450397
0.472501
0.495016
0.512391
0.524459
0.532376
0.537371
0.540479
0.542453
0.543777
0.544747
0.54553
0.54618
0.546669
0.547013
0.547288
0.547561
0.547856
0.548187
0.548553
0.548933
0.549307
0.549675
0.550057
0.550471
0.55092
0.551397
0.551897
0.552424
0.552987
0.553582
0.554193
0.554801
0.5554
0.555999
0.556608
0.557229
0.557866
0.598825
0.578185
0.491759
0.446984
0.450415
0.472507
0.494993
0.51235
0.524407
0.532317
0.537308
0.540411
0.54238
0.543705
0.54468
0.545467
0.546122
0.546615
0.546964
0.547242
0.547516
0.547812
0.548143
0.548509
0.548888
0.549261
0.549628
0.55001
0.550426
0.550876
0.551355
0.551855
0.552381
0.552942
0.553537
0.55415
0.554764
0.555373
0.555981
0.556597
0.557222
0.55786
0.598603
0.578775
0.492135
0.447033
0.450339
0.472458
0.495
0.512398
0.524476
0.532395
0.537387
0.540486
0.54245
0.543773
0.544744
0.545524
0.546171
0.546655
0.546996
0.547268
0.547537
0.54783
0.548159
0.548525
0.548908
0.549288
0.549663
0.550052
0.55047
0.550921
0.551399
0.551898
0.552422
0.552981
0.55357
0.554173
0.554776
0.555375
0.555979
0.556595
0.557225
0.557869
0.598825
0.578191
0.491761
0.446978
0.450407
0.472501
0.494989
0.512349
0.524407
0.532315
0.537303
0.540405
0.542374
0.543702
0.544678
0.545467
0.546122
0.546615
0.546964
0.547243
0.547517
0.547812
0.548143
0.548507
0.548885
0.549258
0.549627
0.550011
0.550427
0.550879
0.551359
0.55186
0.552386
0.552947
0.55354
0.55415
0.55476
0.555364
0.555971
0.556589
0.557218
0.557857
0.598834
0.578526
0.491982
0.447022
0.450377
0.472485
0.495004
0.512384
0.524453
0.532368
0.53736
0.540466
0.542441
0.54377
0.544743
0.545526
0.546175
0.546661
0.547005
0.547283
0.547557
0.547853
0.548182
0.548546
0.548925
0.5493
0.549669
0.550054
0.550469
0.550917
0.551393
0.551892
0.55242
0.552984
0.553581
0.554192
0.5548
0.555398
0.555997
0.556605
0.557226
0.557862
0.598607
0.578763
0.492125
0.447044
0.450359
0.472476
0.495014
0.512408
0.524481
0.5324
0.537391
0.540492
0.54246
0.543786
0.544762
0.545549
0.546201
0.546689
0.547034
0.547308
0.547578
0.54787
0.548198
0.548562
0.54894
0.549313
0.549681
0.550064
0.550478
0.550926
0.551403
0.551904
0.552432
0.552996
0.553594
0.554206
0.554816
0.555417
0.556016
0.556624
0.557244
0.557878
0.598825
0.578207
0.491786
0.447
0.450422
0.47251
0.494998
0.512357
0.524413
0.532324
0.537313
0.540416
0.542387
0.543714
0.544691
0.545483
0.54614
0.546636
0.546988
0.547268
0.547542
0.547836
0.548163
0.548525
0.548901
0.549275
0.549647
0.550035
0.550452
0.550902
0.551377
0.551875
0.552402
0.552967
0.553567
0.554185
0.554801
0.555409
0.556015
0.556627
0.557247
0.557879
0.598832
0.578526
0.491998
0.447046
0.450402
0.472503
0.49502
0.512397
0.524464
0.532383
0.537375
0.540478
0.54245
0.543773
0.544747
0.545536
0.546192
0.546687
0.547036
0.547309
0.547575
0.547863
0.548187
0.548549
0.548928
0.549304
0.549676
0.550061
0.550479
0.550931
0.551411
0.551915
0.552444
0.553009
0.553606
0.554219
0.554829
0.555431
0.556031
0.556639
0.557259
0.557891
0.598605
0.578861
0.492228
0.447118
0.450409
0.47251
0.495044
0.512436
0.524511
0.532435
0.537429
0.54053
0.542498
0.54382
0.544794
0.54558
0.546233
0.546723
0.547068
0.547339
0.547607
0.547899
0.548226
0.54859
0.548968
0.54934
0.549708
0.55009
0.550504
0.550954
0.551432
0.551931
0.552456
0.553019
0.553615
0.554227
0.554837
0.555439
0.55604
0.556649
0.55727
0.557901
0.598837
0.578545
0.49203
0.447086
0.450438
0.472527
0.495034
0.512408
0.524479
0.532399
0.53739
0.540489
0.54246
0.543787
0.544765
0.545556
0.546213
0.546707
0.547055
0.54733
0.547601
0.547895
0.548223
0.548586
0.548962
0.549333
0.549702
0.550086
0.550502
0.550951
0.551424
0.551917
0.552436
0.552992
0.553587
0.554205
0.554828
0.555443
0.556056
0.556671
0.557291
0.557921
0.598617
0.578812
0.492192
0.447125
0.45044
0.472541
0.495067
0.512453
0.524522
0.532443
0.537434
0.540532
0.542498
0.543819
0.544792
0.545579
0.54623
0.54672
0.547065
0.547337
0.547606
0.547899
0.548227
0.548592
0.54897
0.54934
0.549705
0.550085
0.5505
0.55095
0.551428
0.551927
0.552451
0.553011
0.553605
0.554218
0.55483
0.555434
0.556036
0.556644
0.557262
0.557894
0.598837
0.578546
0.492036
0.447094
0.450444
0.47253
0.495036
0.51241
0.524481
0.532402
0.537391
0.540488
0.542456
0.543779
0.544751
0.545534
0.546181
0.546668
0.547013
0.547289
0.547565
0.547864
0.548198
0.548565
0.548941
0.549309
0.549672
0.550054
0.550471
0.550924
0.551401
0.551897
0.552417
0.552976
0.553572
0.554188
0.554807
0.555417
0.556022
0.556631
0.557246
0.557874
0.598618
0.57881
0.492188
0.447122
0.450439
0.472542
0.495068
0.512454
0.524523
0.532441
0.537431
0.540527
0.54249
0.54381
0.544779
0.545559
0.546203
0.546686
0.547026
0.547295
0.547562
0.547853
0.548182
0.548548
0.548927
0.5493
0.549668
0.550053
0.550472
0.550923
0.551399
0.551893
0.552412
0.552971
0.553569
0.554187
0.554805
0.55541
0.55601
0.556615
0.557229
0.557859
0.598837
0.578545
0.492035
0.447094
0.450444
0.472531
0.495035
0.51241
0.52448
0.532398
0.537388
0.540485
0.542452
0.543777
0.54475
0.545532
0.546179
0.546665
0.54701
0.547286
0.547561
0.547859
0.548192
0.548559
0.548935
0.549303
0.549666
0.550048
0.550467
0.55092
0.551398
0.551894
0.552414
0.552971
0.553564
0.554177
0.554792
0.5554
0.556004
0.556614
0.557233
0.557865
0.598617
0.57881
0.492187
0.447122
0.450438
0.47254
0.495066
0.512451
0.524519
0.532438
0.537428
0.540525
0.542489
0.543808
0.544777
0.545557
0.546201
0.546685
0.547025
0.547294
0.54756
0.547851
0.54818
0.548547
0.548927
0.549299
0.549667
0.550051
0.550469
0.550922
0.551398
0.551893
0.552412
0.552969
0.553566
0.554184
0.554802
0.555409
0.556009
0.556614
0.557226
0.557861
0.598836
0.578551
0.492039
0.447093
0.450439
0.472524
0.49503
0.512405
0.524475
0.532395
0.537385
0.540483
0.542451
0.543774
0.544746
0.545529
0.546176
0.546662
0.547007
0.547283
0.547557
0.547856
0.548189
0.548556
0.548933
0.549299
0.549661
0.550042
0.550461
0.550915
0.551392
0.551888
0.552408
0.552965
0.553558
0.554172
0.55479
0.555401
0.55601
0.556621
0.557239
0.557871
0.598624
0.578726
0.492114
0.447097
0.450441
0.472546
0.495067
0.512447
0.52451
0.532426
0.537413
0.540507
0.542471
0.543789
0.544759
0.54554
0.546183
0.546666
0.547007
0.547276
0.547543
0.547835
0.548163
0.54853
0.548909
0.549281
0.549649
0.550034
0.550452
0.550905
0.55138
0.551875
0.552394
0.552953
0.55355
0.554168
0.554786
0.555394
0.555996
0.556603
0.557217
0.557853
0.598836
0.57855
0.492038
0.447091
0.450437
0.472522
0.49503
0.512407
0.524476
0.532396
0.537384
0.54048
0.542449
0.543773
0.544747
0.54553
0.546175
0.546661
0.547006
0.547282
0.547557
0.547857
0.548189
0.548555
0.548932
0.549298
0.549662
0.550044
0.550463
0.550917
0.551396
0.551893
0.552414
0.552972
0.553564
0.554175
0.554787
0.555392
0.555994
0.556601
0.557216
0.557846
0.598617
0.57881
0.492187
0.44712
0.450436
0.472537
0.495067
0.512454
0.524521
0.53244
0.537428
0.540522
0.542487
0.543807
0.544779
0.54556
0.546204
0.546687
0.547028
0.547298
0.547566
0.547859
0.548186
0.548551
0.54893
0.549302
0.549672
0.550059
0.550478
0.550931
0.551408
0.551903
0.552422
0.552977
0.553568
0.55418
0.554796
0.555406
0.556014
0.556624
0.557241
0.55787
0.598837
0.578542
0.492025
0.447083
0.450435
0.472523
0.495033
0.51241
0.524477
0.532395
0.537381
0.540477
0.54245
0.54378
0.544761
0.545552
0.546204
0.546695
0.547042
0.547317
0.547588
0.547882
0.548208
0.548568
0.548943
0.549314
0.549684
0.550071
0.550489
0.550941
0.551416
0.551911
0.55243
0.552987
0.553579
0.554193
0.55481
0.555421
0.55603
0.556643
0.557262
0.557894
0.59861
0.578833
0.492198
0.447106
0.450409
0.472512
0.495047
0.512439
0.52451
0.532431
0.53742
0.540516
0.542483
0.543805
0.544778
0.545561
0.546205
0.546688
0.547029
0.5473
0.547569
0.547861
0.548187
0.548552
0.548932
0.549307
0.549679
0.550067
0.550487
0.550941
0.551418
0.551914
0.552433
0.552989
0.553582
0.554195
0.554811
0.55542
0.556028
0.55664
0.557257
0.557886
0.598834
0.578527
0.491992
0.447045
0.450404
0.472505
0.495023
0.512399
0.524464
0.53238
0.53737
0.540471
0.542444
0.54377
0.544747
0.545537
0.546192
0.546686
0.547035
0.547309
0.547577
0.547866
0.548188
0.54855
0.548928
0.549304
0.549676
0.550063
0.55048
0.550931
0.551408
0.551906
0.552428
0.552986
0.553579
0.554189
0.554798
0.555399
0.556001
0.556611
0.557232
0.557867
0.598831
0.5782
0.491779
0.447002
0.450432
0.472518
0.495006
0.512364
0.524419
0.532329
0.537316
0.540414
0.542385
0.543709
0.544687
0.545478
0.546133
0.546628
0.54698
0.547259
0.547533
0.547827
0.548152
0.548513
0.548888
0.54926
0.549633
0.550021
0.550439
0.55089
0.551365
0.551862
0.552385
0.552944
0.553537
0.554149
0.554761
0.555367
0.555973
0.556586
0.557207
0.557843
0.598611
0.578766
0.492142
0.447074
0.450393
0.472501
0.495035
0.512424
0.524494
0.532414
0.537404
0.5405
0.542466
0.543786
0.544756
0.545537
0.546181
0.546665
0.547006
0.547277
0.547545
0.547837
0.548165
0.548531
0.548911
0.549285
0.549656
0.550042
0.55046
0.550912
0.551389
0.551886
0.552407
0.552965
0.55356
0.554173
0.554784
0.555387
0.555987
0.556596
0.557215
0.557849
0.598832
0.578555
0.492038
0.447082
0.450425
0.472512
0.495021
0.512398
0.52447
0.532393
0.537384
0.540482
0.54245
0.543772
0.544744
0.545527
0.546175
0.546661
0.547006
0.547281
0.547556
0.547855
0.548188
0.548554
0.548931
0.549301
0.549668
0.55005
0.550465
0.550914
0.551391
0.551889
0.552413
0.552974
0.55357
0.554184
0.554796
0.555399
0.555998
0.556604
0.557219
0.557848
0.598617
0.578811
0.492187
0.447119
0.450435
0.472537
0.495064
0.51245
0.52452
0.53244
0.537431
0.540528
0.542491
0.543808
0.544776
0.545556
0.546201
0.546685
0.547025
0.547294
0.54756
0.547852
0.548181
0.548547
0.548927
0.549299
0.549667
0.550052
0.550471
0.550923
0.5514
0.551897
0.552418
0.552976
0.553568
0.554179
0.554789
0.555391
0.555992
0.5566
0.557216
0.557846
0.598837
0.578546
0.492035
0.447092
0.450441
0.472527
0.495034
0.512409
0.524479
0.532399
0.537389
0.540486
0.542454
0.543777
0.54475
0.545532
0.546178
0.546664
0.547009
0.547285
0.547561
0.54786
0.548192
0.548559
0.548935
0.549302
0.549667
0.550049
0.550467
0.550919
0.551395
0.551891
0.552412
0.552971
0.553567
0.554183
0.554801
0.555412
0.55602
0.556629
0.557244
0.557868
0.598589
0.578814
0.49219
0.447123
0.450438
0.47254
0.495067
0.512453
0.524521
0.532441
0.53743
0.540527
0.542492
0.543811
0.54478
0.54556
0.546204
0.546689
0.54703
0.5473
0.547567
0.547859
0.548187
0.548553
0.548932
0.549305
0.549676
0.550062
0.55048
0.55093
0.551405
0.5519
0.55242
0.552976
0.55357
0.554185
0.554803
0.555415
0.556023
0.556635
0.557251
0.557879
0.0307217
0.153372
0.309845
0.466819
0.587806
0.662137
0.700337
0.716133
0.719983
0.718374
0.715032
0.711699
0.708952
0.70683
0.705247
0.704141
0.703387
0.702772
0.702269
0.701961
0.701901
0.702059
0.702388
0.702731
0.703011
0.70327
0.703577
0.70396
0.70441
0.704915
0.705469
0.706068
0.706713
0.707404
0.708099
0.708758
0.709378
0.709972
0.710563
0.711173
0.711819
0.712508
0.0304371
0.153237
0.309781
0.466832
0.587893
0.662257
0.70046
0.716243
0.720073
0.718452
0.715103
0.711762
0.709006
0.706878
0.705291
0.704178
0.703416
0.702796
0.702291
0.701979
0.701913
0.702067
0.702398
0.702744
0.703024
0.703278
0.703576
0.703953
0.704404
0.704915
0.705475
0.706083
0.706735
0.707432
0.708123
0.708771
0.709375
0.709959
0.710549
0.711165
0.711816
0.712507
0.0306641
0.153351
0.309865
0.46686
0.587847
0.662164
0.700345
0.716121
0.719954
0.718338
0.715005
0.711686
0.708945
0.706819
0.705229
0.704115
0.703354
0.702737
0.702239
0.701939
0.701883
0.702043
0.702374
0.70272
0.702999
0.703254
0.703553
0.703929
0.704377
0.704883
0.70544
0.706047
0.706699
0.707396
0.708086
0.708731
0.709333
0.709916
0.710508
0.711127
0.711784
0.712481
0.0308459
0.15356
0.310037
0.466937
0.587806
0.662047
0.700202
0.715984
0.719833
0.71823
0.7149
0.711579
0.708837
0.706716
0.705136
0.704028
0.703273
0.702665
0.702173
0.701876
0.701822
0.701984
0.702317
0.702665
0.702946
0.703202
0.703504
0.703885
0.704337
0.704847
0.705406
0.706011
0.70666
0.707352
0.708042
0.708695
0.709309
0.709905
0.710505
0.711128
0.711784
0.712478
0.0304135
0.153212
0.309777
0.466848
0.587919
0.662277
0.700467
0.716237
0.72006
0.71843
0.715069
0.711716
0.708949
0.706814
0.705217
0.704091
0.703317
0.702692
0.702187
0.701882
0.701824
0.701983
0.702318
0.702671
0.702962
0.703231
0.703543
0.703928
0.704382
0.70489
0.70545
0.706056
0.706705
0.707394
0.708073
0.708709
0.709309
0.709898
0.710501
0.711132
0.711799
0.712504
0.0308395
0.153547
0.310023
0.466927
0.587801
0.662046
0.700203
0.715987
0.719838
0.718234
0.7149
0.711576
0.708833
0.706713
0.705134
0.704028
0.703275
0.702666
0.702174
0.701876
0.701822
0.701982
0.702314
0.702659
0.702939
0.703197
0.703501
0.703883
0.704338
0.704849
0.70541
0.706016
0.706666
0.70736
0.708047
0.708693
0.709298
0.70989
0.710494
0.711125
0.711785
0.712473
0.0306468
0.153323
0.309836
0.466838
0.587839
0.662164
0.70035
0.716129
0.719963
0.718344
0.715006
0.711681
0.708938
0.706814
0.705226
0.704112
0.703348
0.702731
0.702234
0.701936
0.701882
0.702041
0.70237
0.702713
0.702993
0.703249
0.70355
0.703928
0.704375
0.70488
0.705437
0.706043
0.706698
0.707397
0.708088
0.708733
0.709333
0.709914
0.710505
0.711125
0.711782
0.712479
0.0304381
0.153239
0.309796
0.466855
0.587912
0.662265
0.700454
0.716229
0.720056
0.71843
0.715076
0.711729
0.708972
0.706847
0.705263
0.70415
0.703386
0.702765
0.702262
0.701954
0.701891
0.702044
0.702371
0.702715
0.702995
0.703252
0.703553
0.703932
0.704383
0.704892
0.705452
0.70606
0.706716
0.707416
0.708109
0.708757
0.709359
0.709941
0.710532
0.71115
0.711802
0.712492
0.0308453
0.153551
0.310026
0.466926
0.587799
0.662043
0.700202
0.715987
0.719838
0.718237
0.714908
0.711587
0.708845
0.706726
0.705148
0.704048
0.703299
0.702694
0.702202
0.701904
0.701848
0.702005
0.702331
0.702673
0.702954
0.703216
0.703526
0.70391
0.704362
0.704867
0.705423
0.706029
0.706684
0.707385
0.708082
0.708737
0.70935
0.709942
0.710536
0.711151
0.711797
0.712482
0.0306682
0.153353
0.30986
0.466852
0.587842
0.662161
0.700346
0.716126
0.719963
0.718351
0.715016
0.711689
0.70894
0.70681
0.705222
0.704113
0.703357
0.702741
0.702238
0.701927
0.701859
0.70201
0.702338
0.702686
0.702973
0.703237
0.703545
0.703928
0.704384
0.704897
0.70546
0.706071
0.706728
0.70743
0.708124
0.708773
0.709375
0.709959
0.71055
0.711168
0.711819
0.712506
0.0304293
0.153218
0.309757
0.466813
0.587885
0.662258
0.700467
0.716254
0.720086
0.718466
0.715115
0.711771
0.709014
0.706885
0.705299
0.704185
0.703423
0.702803
0.702297
0.701985
0.70192
0.702073
0.702401
0.702744
0.703024
0.70328
0.703581
0.703962
0.704414
0.704923
0.705481
0.706087
0.706741
0.707439
0.708132
0.708781
0.709385
0.70997
0.710562
0.711179
0.711828
0.712516
0.0307235
0.153371
0.30985
0.466828
0.587815
0.662142
0.70034
0.716138
0.719988
0.718379
0.715037
0.711701
0.708954
0.706834
0.705257
0.704154
0.7034
0.702786
0.702284
0.701976
0.701915
0.702073
0.702401
0.702742
0.70302
0.703277
0.703582
0.703964
0.704414
0.704917
0.705468
0.706064
0.706707
0.707401
0.708102
0.708772
0.709398
0.709997
0.710593
0.711208
0.711855
0.712543
0.0304636
0.153296
0.309849
0.466879
0.587906
0.662246
0.700439
0.716222
0.720057
0.718442
0.715096
0.711754
0.708998
0.706871
0.705286
0.704174
0.703413
0.702794
0.702289
0.701978
0.701915
0.702071
0.7024
0.702743
0.703021
0.703274
0.703574
0.703954
0.704407
0.704917
0.705474
0.706077
0.706727
0.707424
0.708117
0.708769
0.709377
0.709962
0.710552
0.711167
0.711817
0.712507
0.0307279
0.153374
0.309844
0.466819
0.587804
0.662133
0.700334
0.716135
0.719991
0.718389
0.715048
0.711707
0.70895
0.706818
0.705225
0.704102
0.703332
0.70271
0.702209
0.701907
0.701857
0.702024
0.702359
0.702704
0.702981
0.703234
0.703535
0.703918
0.704371
0.704877
0.705431
0.706032
0.70668
0.707378
0.708077
0.708739
0.709356
0.709946
0.710534
0.711143
0.711788
0.712476
0.0304647
0.153299
0.309854
0.466883
0.587908
0.662246
0.700438
0.716222
0.720058
0.71844
0.715088
0.711739
0.708975
0.706839
0.705242
0.704115
0.703341
0.702714
0.702207
0.701898
0.701838
0.701999
0.702334
0.702683
0.702967
0.703228
0.703534
0.70392
0.704374
0.70488
0.70543
0.706025
0.706672
0.707374
0.708079
0.708737
0.709342
0.709921
0.710507
0.711121
0.71177
0.712457
0.0307277
0.153373
0.309843
0.466817
0.587803
0.662132
0.700334
0.716135
0.719991
0.718387
0.715044
0.711703
0.708946
0.706816
0.705222
0.704098
0.703327
0.702704
0.702202
0.701901
0.701851
0.702017
0.702351
0.702696
0.702972
0.703226
0.703529
0.703913
0.704367
0.704874
0.705427
0.706027
0.706673
0.707369
0.708065
0.708722
0.709333
0.70992
0.710513
0.711133
0.711785
0.712471
0.0304633
0.153296
0.309849
0.46688
0.587907
0.662246
0.700439
0.716222
0.720057
0.718438
0.715086
0.711737
0.708974
0.706838
0.705241
0.704115
0.703341
0.702714
0.702207
0.701897
0.701837
0.701997
0.702333
0.702683
0.702967
0.703227
0.703534
0.703918
0.704373
0.704879
0.705429
0.706024
0.70667
0.707372
0.708077
0.708735
0.70934
0.709918
0.710504
0.71112
0.711774
0.71246
0.0307208
0.153361
0.309829
0.466807
0.587798
0.662131
0.700335
0.716137
0.719991
0.718385
0.715042
0.711701
0.708945
0.706813
0.705218
0.704095
0.703324
0.702702
0.7022
0.701898
0.701847
0.702013
0.702348
0.702692
0.702968
0.703221
0.703523
0.703906
0.70436
0.704868
0.705421
0.70602
0.706666
0.707362
0.708059
0.708717
0.709333
0.709925
0.710521
0.711141
0.711793
0.712475
0.0305013
0.153361
0.309921
0.46693
0.587919
0.662228
0.700405
0.716184
0.720018
0.718402
0.715053
0.711705
0.708944
0.70681
0.705214
0.704089
0.703315
0.702689
0.702182
0.701873
0.701814
0.701975
0.70231
0.702659
0.702944
0.703204
0.703512
0.703897
0.704351
0.704857
0.705407
0.706003
0.70665
0.707353
0.708058
0.708716
0.709322
0.709903
0.710493
0.711112
0.711765
0.712448
0.0307203
0.15336
0.309829
0.466807
0.587798
0.66213
0.700334
0.716137
0.719992
0.718387
0.715044
0.7117
0.708943
0.706812
0.705218
0.704095
0.703324
0.7027
0.702198
0.701898
0.701847
0.702013
0.702348
0.702692
0.702968
0.703221
0.703525
0.703909
0.704364
0.704872
0.705427
0.706029
0.706676
0.707369
0.708061
0.708715
0.709326
0.709913
0.710501
0.711113
0.71176
0.712448
0.0304621
0.153294
0.309846
0.466877
0.587905
0.662244
0.700438
0.716224
0.72006
0.718442
0.715089
0.711738
0.708975
0.706841
0.705245
0.70412
0.703345
0.702719
0.702215
0.701907
0.701847
0.702007
0.70234
0.702688
0.702973
0.703236
0.703545
0.703931
0.704385
0.704892
0.705445
0.706042
0.706684
0.707373
0.708065
0.708723
0.709341
0.709935
0.710527
0.711137
0.711781
0.712467
0.0307232
0.153369
0.309845
0.466823
0.587809
0.662135
0.700335
0.716136
0.719988
0.718379
0.715032
0.711692
0.708944
0.706825
0.705246
0.704139
0.70338
0.702763
0.702261
0.701955
0.701895
0.702052
0.702377
0.702716
0.702995
0.703257
0.703566
0.703952
0.704405
0.70491
0.705462
0.706059
0.706702
0.707393
0.708088
0.708749
0.70937
0.709964
0.710555
0.711168
0.711816
0.712505
0.0304395
0.153242
0.309787
0.466837
0.587894
0.662254
0.700457
0.716244
0.720078
0.718457
0.7151
0.711746
0.708982
0.706848
0.705253
0.704128
0.703353
0.702726
0.702221
0.701914
0.701854
0.702011
0.702344
0.702694
0.702982
0.703247
0.703558
0.703947
0.704403
0.704911
0.705464
0.706061
0.706706
0.707401
0.708097
0.708757
0.709375
0.709968
0.710559
0.711168
0.711811
0.712497
0.0306694
0.153359
0.309869
0.466859
0.587843
0.662157
0.70034
0.716121
0.719958
0.718348
0.715013
0.711684
0.708935
0.706807
0.70522
0.704111
0.703355
0.702739
0.702238
0.701929
0.701861
0.702012
0.702338
0.702685
0.702972
0.703237
0.703546
0.70393
0.704383
0.704893
0.705449
0.706051
0.706699
0.707395
0.708089
0.70874
0.709345
0.70993
0.710522
0.711141
0.711795
0.712486
0.0308515
0.15357
0.310046
0.466942
0.587805
0.662043
0.700201
0.715989
0.71984
0.718239
0.714908
0.711582
0.708839
0.706718
0.70514
0.704038
0.703288
0.702682
0.702191
0.701892
0.701835
0.701991
0.702316
0.702656
0.702937
0.7032
0.70351
0.703896
0.704349
0.704855
0.705409
0.70601
0.706657
0.707351
0.708043
0.708697
0.70931
0.709901
0.710494
0.711109
0.711759
0.712452
0.0304542
0.153275
0.309833
0.466876
0.587913
0.662252
0.700439
0.716216
0.720045
0.718423
0.715068
0.711717
0.708954
0.706819
0.705223
0.704097
0.703322
0.702696
0.70219
0.701884
0.701824
0.701983
0.702317
0.702667
0.702955
0.703219
0.703527
0.703914
0.704369
0.704876
0.705429
0.706028
0.706677
0.707376
0.708073
0.708726
0.709331
0.709914
0.710503
0.711121
0.711774
0.712466
0.030709
0.153341
0.309809
0.466794
0.587795
0.662134
0.70034
0.716141
0.719996
0.718391
0.715047
0.711705
0.708948
0.706816
0.705221
0.704098
0.703327
0.702704
0.702201
0.7019
0.701848
0.702014
0.702348
0.702694
0.702974
0.703231
0.703533
0.703913
0.704364
0.704871
0.705426
0.706026
0.706674
0.70737
0.708066
0.70872
0.709326
0.709909
0.710495
0.711107
0.711754
0.712442
0.0304599
0.153292
0.309847
0.466879
0.587908
0.662248
0.70044
0.716224
0.720058
0.71844
0.715089
0.711741
0.708977
0.70684
0.705241
0.704115
0.703341
0.702714
0.702206
0.701897
0.701837
0.701998
0.702333
0.702683
0.702967
0.703228
0.703535
0.70392
0.704373
0.704881
0.705436
0.706035
0.70668
0.707373
0.708064
0.708716
0.709323
0.709906
0.710494
0.711107
0.711757
0.712446
0.0307265
0.15337
0.309841
0.466817
0.587804
0.662133
0.700335
0.716136
0.719992
0.718388
0.715046
0.711704
0.708948
0.706816
0.705222
0.704099
0.703327
0.702704
0.702202
0.701901
0.701851
0.702017
0.702352
0.702696
0.702972
0.703226
0.703529
0.703913
0.704365
0.704872
0.705425
0.706027
0.706675
0.70737
0.708067
0.708727
0.709348
0.709943
0.710535
0.711144
0.711784
0.712465
0.0304653
0.1533
0.309852
0.466879
0.587905
0.662245
0.700438
0.716221
0.720057
0.718439
0.715088
0.71174
0.708977
0.706842
0.705245
0.704119
0.703345
0.70272
0.702215
0.701907
0.701847
0.702007
0.702342
0.702691
0.702976
0.703239
0.703547
0.703932
0.704384
0.70489
0.705443
0.70604
0.706683
0.707374
0.708069
0.708729
0.70935
0.709946
0.710539
0.711149
0.711793
0.712477
0.00692514
0.00612067
0.0319269
0.0946677
0.185191
0.282542
0.374431
0.452214
0.511693
0.553701
0.582505
0.602547
0.616894
0.627484
0.635632
0.642223
0.647565
0.651675
0.655101
0.658184
0.661072
0.663791
0.666346
0.668658
0.67074
0.672685
0.674559
0.676373
0.678126
0.679822
0.681473
0.683089
0.684673
0.686221
0.687664
0.688993
0.690237
0.69143
0.692597
0.693755
0.694916
0.696087
0.00686335
0.00608805
0.0319288
0.0947071
0.185266
0.282639
0.374535
0.452316
0.511794
0.553801
0.582605
0.602641
0.616982
0.627565
0.635706
0.642288
0.647618
0.651718
0.655137
0.658214
0.661094
0.663806
0.666357
0.668666
0.670745
0.672684
0.674552
0.676362
0.678116
0.679817
0.681474
0.683098
0.68469
0.686244
0.687684
0.689001
0.690232
0.691418
0.692586
0.693748
0.69491
0.696082
0.00691264
0.00611436
0.0319535
0.0947261
0.185265
0.282594
0.374469
0.452228
0.511684
0.553683
0.582494
0.602551
0.616906
0.627491
0.63563
0.642215
0.647552
0.65166
0.65509
0.658179
0.661071
0.66379
0.666343
0.668651
0.670728
0.672666
0.674531
0.676338
0.678087
0.679783
0.681438
0.68306
0.684651
0.686203
0.687641
0.688956
0.690186
0.691373
0.692542
0.693707
0.694875
0.696054
0.00695216
0.00615702
0.0319835
0.0947376
0.185234
0.282556
0.374407
0.452156
0.51161
0.553596
0.582393
0.602439
0.616788
0.627372
0.635515
0.642105
0.647451
0.651569
0.655008
0.658104
0.661
0.663724
0.666283
0.668597
0.670679
0.672623
0.674493
0.676306
0.678059
0.679758
0.681413
0.683034
0.684621
0.68617
0.687609
0.688931
0.690173
0.691369
0.692544
0.693713
0.694881
0.69606
0.00685825
0.00608283
0.0319464
0.0947556
0.185329
0.282703
0.37459
0.452362
0.511827
0.55382
0.582608
0.602624
0.61694
0.627498
0.635618
0.642185
0.647503
0.651598
0.655017
0.658098
0.660986
0.663708
0.66627
0.668592
0.670686
0.672641
0.674522
0.676342
0.678101
0.679802
0.68146
0.683083
0.684671
0.686215
0.687643
0.68895
0.690179
0.691369
0.692545
0.69372
0.694898
0.696085
0.00695076
0.0061544
0.03198
0.0947338
0.185231
0.282554
0.374405
0.452156
0.511612
0.553601
0.582398
0.602442
0.616787
0.627368
0.635511
0.642104
0.647453
0.651573
0.655012
0.658105
0.660999
0.663721
0.666278
0.668592
0.670674
0.672617
0.674489
0.676303
0.678059
0.679761
0.681418
0.68304
0.684629
0.686179
0.687615
0.688931
0.690164
0.691357
0.692536
0.69371
0.694878
0.696048
0.00690887
0.00610911
0.0319454
0.0947168
0.185261
0.282595
0.374474
0.452237
0.511698
0.5537
0.582511
0.602563
0.616911
0.627492
0.63563
0.642216
0.647555
0.651664
0.655093
0.658181
0.661072
0.663791
0.666342
0.66865
0.670727
0.672666
0.674532
0.676339
0.678088
0.679784
0.681438
0.683061
0.684653
0.686207
0.687646
0.68896
0.69019
0.691375
0.692544
0.693709
0.694878
0.696057
0.00686358
0.00608847
0.0319403
0.094731
0.185295
0.282668
0.374559
0.452334
0.511805
0.553807
0.582606
0.602635
0.616966
0.627543
0.635681
0.642264
0.647597
0.651698
0.655117
0.658194
0.661074
0.663785
0.666334
0.668643
0.670722
0.672663
0.674532
0.676343
0.678097
0.679796
0.681454
0.683079
0.684674
0.686229
0.687669
0.688986
0.690217
0.691403
0.692571
0.693734
0.694897
0.696071
0.00695202
0.00615506
0.0319837
0.0947441
0.185242
0.28256
0.374406
0.452152
0.511604
0.553593
0.582391
0.602437
0.616786
0.627372
0.63552
0.64212
0.647475
0.651599
0.655037
0.658129
0.661021
0.66374
0.666294
0.668605
0.670687
0.672632
0.674507
0.676322
0.678076
0.679773
0.681427
0.68305
0.684642
0.686196
0.687638
0.688961
0.690201
0.691395
0.692567
0.693729
0.694888
0.696061
0.00691352
0.00611511
0.0319491
0.094716
0.185252
0.282579
0.374456
0.452219
0.511683
0.553696
0.582513
0.60256
0.6169
0.627473
0.635605
0.64219
0.64753
0.651635
0.655055
0.658131
0.661013
0.663727
0.666282
0.668598
0.670686
0.672636
0.674513
0.676332
0.678092
0.679797
0.681458
0.683087
0.684684
0.686243
0.687686
0.689004
0.690236
0.691424
0.692593
0.693757
0.69492
0.696092
0.00686163
0.00608437
0.0319217
0.0946997
0.185262
0.282637
0.374535
0.452319
0.5118
0.55381
0.582617
0.602652
0.61699
0.62757
0.63571
0.642293
0.647625
0.651725
0.655143
0.658218
0.661098
0.663809
0.666357
0.668666
0.670744
0.672686
0.674556
0.676369
0.678125
0.679825
0.681481
0.683104
0.684697
0.686252
0.687693
0.689012
0.690245
0.691433
0.692602
0.693765
0.694927
0.696099
0.00692552
0.00611994
0.0319272
0.0946695
0.185194
0.282544
0.374431
0.452213
0.511692
0.553702
0.582508
0.60255
0.616896
0.627488
0.635642
0.642239
0.647586
0.651697
0.655123
0.658205
0.66109
0.663807
0.66636
0.668668
0.670747
0.672689
0.67456
0.676372
0.678124
0.679819
0.681468
0.683081
0.684664
0.686216
0.687666
0.689004
0.690257
0.691459
0.692635
0.693801
0.694966
0.69614
0.00686914
0.00609833
0.0319548
0.0947473
0.185299
0.282653
0.374529
0.452297
0.511768
0.553777
0.582585
0.602624
0.616964
0.627545
0.635686
0.64227
0.647605
0.651708
0.655128
0.658205
0.661086
0.663799
0.666349
0.668657
0.670736
0.672675
0.674545
0.676358
0.678113
0.679813
0.681468
0.683089
0.684679
0.686232
0.687674
0.688996
0.690231
0.691419
0.692586
0.693748
0.694911
0.696084
0.00692648
0.00612127
0.0319224
0.0946581
0.18518
0.282531
0.374421
0.452207
0.511693
0.553718
0.582534
0.602571
0.616902
0.627471
0.635599
0.642171
0.647494
0.651593
0.655017
0.658103
0.660998
0.663724
0.666285
0.6686
0.670682
0.672625
0.674496
0.676309
0.678063
0.679761
0.681416
0.683037
0.684627
0.686183
0.68763
0.68896
0.690204
0.691397
0.692564
0.693723
0.694884
0.696058
0.00686938
0.0060988
0.0319563
0.0947505
0.185301
0.282655
0.374531
0.452301
0.511773
0.553777
0.582578
0.602605
0.616927
0.62749
0.635612
0.642181
0.6475
0.651594
0.655012
0.658092
0.66098
0.663702
0.666263
0.668583
0.670671
0.672619
0.674495
0.676312
0.67807
0.679768
0.681418
0.683032
0.684621
0.686181
0.687632
0.688956
0.690189
0.691373
0.69254
0.693703
0.694865
0.696036
0.00692643
0.00612118
0.0319221
0.0946576
0.18518
0.28253
0.37442
0.452207
0.511695
0.55372
0.582534
0.602569
0.616898
0.627466
0.635594
0.642166
0.647489
0.651587
0.65501
0.658095
0.66099
0.663716
0.666277
0.668592
0.670674
0.672617
0.674489
0.676304
0.678059
0.679758
0.681412
0.683032
0.684622
0.686176
0.687621
0.688945
0.690182
0.691373
0.692547
0.693715
0.694881
0.696051
0.00686906
0.00609828
0.0319544
0.094746
0.185297
0.282652
0.374531
0.452303
0.511776
0.553779
0.582578
0.602604
0.616927
0.62749
0.635613
0.642182
0.647501
0.651595
0.655013
0.658092
0.660981
0.663703
0.666264
0.668583
0.670671
0.67262
0.674495
0.676313
0.67807
0.679768
0.681418
0.683033
0.684621
0.686181
0.687631
0.688955
0.690187
0.691371
0.692539
0.693704
0.694869
0.696037
0.00692493
0.00611903
0.0319193
0.0946549
0.185179
0.282532
0.374423
0.452211
0.511698
0.553722
0.582534
0.602568
0.616897
0.627466
0.635593
0.642164
0.647487
0.651585
0.655008
0.658093
0.660988
0.663714
0.666274
0.668589
0.670671
0.672613
0.674484
0.676298
0.678053
0.679752
0.681405
0.683025
0.684614
0.686169
0.687614
0.68894
0.690182
0.691377
0.692552
0.693722
0.694887
0.696054
0.00687734
0.00611066
0.0319765
0.0947737
0.185316
0.28266
0.374525
0.452286