/*--------------------------------*- C++ -*----------------------------------*\
  =========                 |
  \\      /  F ield         | OpenFOAM: The Open Source CFD Toolbox
   \\    /   O peration     | Website:  https://openfoam.org
    \\  /    A nd           | Version:  9
     \\/     M anipulation  |
\*---------------------------------------------------------------------------*/
FoamFile
{
    format      ascii;
    class       volScalarField;
    location    "1200";
    object      nut;
}
// * * * * * * * * * * * * * * * * * * * * * * * * * * * * * * * * * * * * * //

dimensions      [0 2 -1 0 0 0 0];

internalField   nonuniform List<scalar> 
82350
(
3.88864e-05
3.2434e-05
2.67257e-05
2.55546e-05
2.83606e-05
3.31764e-05
3.84678e-05
4.33394e-05
4.74378e-05
5.07095e-05
5.32447e-05
5.51824e-05
5.66706e-05
5.78437e-05
5.88047e-05
5.96147e-05
6.03132e-05
6.09244e-05
6.14462e-05
6.18901e-05
6.22744e-05
6.26148e-05
6.29216e-05
6.32132e-05
6.34925e-05
6.37529e-05
6.39914e-05
6.42118e-05
6.44186e-05
6.46139e-05
6.47982e-05
6.49724e-05
6.51381e-05
6.52981e-05
6.54555e-05
6.56107e-05
6.57612e-05
6.59052e-05
6.60426e-05
6.61732e-05
6.62974e-05
6.6417e-05
3.8913e-05
3.2457e-05
2.67294e-05
2.55465e-05
2.835e-05
3.31685e-05
3.84635e-05
4.33383e-05
4.74388e-05
5.07118e-05
5.32482e-05
5.51864e-05
5.66743e-05
5.78471e-05
5.88076e-05
5.96172e-05
6.03153e-05
6.09258e-05
6.14469e-05
6.18907e-05
6.22748e-05
6.26147e-05
6.29212e-05
6.3213e-05
6.3493e-05
6.3754e-05
6.39926e-05
6.42122e-05
6.4418e-05
6.46127e-05
6.4797e-05
6.49717e-05
6.51383e-05
6.52992e-05
6.54576e-05
6.56132e-05
6.57633e-05
6.5906e-05
6.60417e-05
6.61711e-05
6.62949e-05
6.64148e-05
3.88913e-05
3.2433e-05
2.67224e-05
2.55511e-05
2.83579e-05
3.31755e-05
3.8468e-05
4.33401e-05
4.74384e-05
5.07096e-05
5.32447e-05
5.51828e-05
5.66714e-05
5.78448e-05
5.88052e-05
5.96145e-05
6.03121e-05
6.09219e-05
6.14426e-05
6.18863e-05
6.22708e-05
6.26112e-05
6.2918e-05
6.32096e-05
6.34894e-05
6.37505e-05
6.39893e-05
6.42094e-05
6.44156e-05
6.46105e-05
6.47948e-05
6.49692e-05
6.51358e-05
6.52969e-05
6.54554e-05
6.56112e-05
6.57612e-05
6.59036e-05
6.60389e-05
6.6168e-05
6.62917e-05
6.64117e-05
3.88768e-05
3.24065e-05
2.67137e-05
2.5557e-05
2.8369e-05
3.31852e-05
3.8474e-05
4.33428e-05
4.74385e-05
5.07078e-05
5.32418e-05
5.51789e-05
5.66664e-05
5.78393e-05
5.88001e-05
5.961e-05
6.03082e-05
6.09185e-05
6.14398e-05
6.18842e-05
6.2269e-05
6.26094e-05
6.29163e-05
6.32079e-05
6.34876e-05
6.37484e-05
6.39869e-05
6.42066e-05
6.44127e-05
6.46076e-05
6.4792e-05
6.49666e-05
6.51331e-05
6.52937e-05
6.54517e-05
6.5607e-05
6.57571e-05
6.59004e-05
6.60371e-05
6.61676e-05
6.62924e-05
6.6413e-05
3.8912e-05
3.24524e-05
2.67247e-05
2.55409e-05
2.8345e-05
3.31653e-05
3.84618e-05
4.33377e-05
4.74386e-05
5.07115e-05
5.32476e-05
5.51852e-05
5.66723e-05
5.78451e-05
5.88058e-05
5.96153e-05
6.03128e-05
6.09221e-05
6.14422e-05
6.18856e-05
6.22699e-05
6.261e-05
6.29166e-05
6.32079e-05
6.34877e-05
6.37492e-05
6.39889e-05
6.421e-05
6.44171e-05
6.46124e-05
6.47968e-05
6.49714e-05
6.51379e-05
6.52988e-05
6.54567e-05
6.56112e-05
6.57597e-05
6.5901e-05
6.60361e-05
6.61659e-05
6.6291e-05
6.64126e-05
3.88771e-05
3.24072e-05
2.67136e-05
2.55563e-05
2.83681e-05
3.31844e-05
3.84734e-05
4.33425e-05
4.74384e-05
5.07077e-05
5.32416e-05
5.51785e-05
5.66658e-05
5.78389e-05
5.87999e-05
5.96101e-05
6.03085e-05
6.09188e-05
6.144e-05
6.18843e-05
6.22692e-05
6.26097e-05
6.29166e-05
6.3208e-05
6.34876e-05
6.37483e-05
6.39868e-05
6.42067e-05
6.4413e-05
6.46081e-05
6.47926e-05
6.49673e-05
6.5134e-05
6.52948e-05
6.54529e-05
6.56081e-05
6.57576e-05
6.59e-05
6.60359e-05
6.61662e-05
6.62916e-05
6.64131e-05
3.88919e-05
3.24331e-05
2.67216e-05
2.55492e-05
2.83557e-05
3.31735e-05
3.84666e-05
4.33392e-05
4.74381e-05
5.07093e-05
5.32443e-05
5.51822e-05
5.66706e-05
5.78443e-05
5.88053e-05
5.96149e-05
6.03125e-05
6.09219e-05
6.14422e-05
6.1886e-05
6.22708e-05
6.26114e-05
6.29183e-05
6.32096e-05
6.34891e-05
6.375e-05
6.39889e-05
6.42093e-05
6.44158e-05
6.46107e-05
6.47948e-05
6.49691e-05
6.51356e-05
6.52967e-05
6.54556e-05
6.56115e-05
6.57617e-05
6.59041e-05
6.60392e-05
6.61682e-05
6.6292e-05
6.6412e-05
3.89112e-05
3.24512e-05
2.67242e-05
2.55424e-05
2.83472e-05
3.31671e-05
3.8463e-05
4.33382e-05
4.74386e-05
5.07113e-05
5.32472e-05
5.51848e-05
5.66722e-05
5.78452e-05
5.88064e-05
5.96166e-05
6.03146e-05
6.09245e-05
6.14453e-05
6.18891e-05
6.22736e-05
6.26138e-05
6.29204e-05
6.32117e-05
6.34911e-05
6.3752e-05
6.39908e-05
6.42108e-05
6.44169e-05
6.46116e-05
6.47957e-05
6.497e-05
6.51364e-05
6.52974e-05
6.54561e-05
6.56121e-05
6.57624e-05
6.59051e-05
6.60406e-05
6.61699e-05
6.62939e-05
6.6414e-05
3.88769e-05
3.24087e-05
2.67156e-05
2.55579e-05
2.83691e-05
3.31848e-05
3.84738e-05
4.33425e-05
4.74381e-05
5.07076e-05
5.32414e-05
5.51785e-05
5.66662e-05
5.78391e-05
5.88002e-05
5.96107e-05
6.0309e-05
6.092e-05
6.14417e-05
6.18861e-05
6.22712e-05
6.26119e-05
6.29185e-05
6.32095e-05
6.34883e-05
6.37485e-05
6.39874e-05
6.4208e-05
6.44148e-05
6.46099e-05
6.47938e-05
6.49675e-05
6.51334e-05
6.5294e-05
6.54525e-05
6.56085e-05
6.57594e-05
6.59032e-05
6.604e-05
6.61704e-05
6.6295e-05
6.64151e-05
3.8891e-05
3.24331e-05
2.67232e-05
2.55515e-05
2.8358e-05
3.31753e-05
3.8468e-05
4.33402e-05
4.74386e-05
5.071e-05
5.32448e-05
5.51824e-05
5.66706e-05
5.78434e-05
5.88042e-05
5.96141e-05
6.03125e-05
6.09237e-05
6.14455e-05
6.18898e-05
6.22742e-05
6.26138e-05
6.29194e-05
6.32102e-05
6.34894e-05
6.37503e-05
6.39896e-05
6.421e-05
6.44165e-05
6.46116e-05
6.47962e-05
6.49709e-05
6.51377e-05
6.5299e-05
6.54577e-05
6.56138e-05
6.57642e-05
6.59071e-05
6.60429e-05
6.61725e-05
6.62967e-05
6.64168e-05
3.89134e-05
3.24593e-05
2.6731e-05
2.55467e-05
2.83494e-05
3.31677e-05
3.84629e-05
4.3338e-05
4.74387e-05
5.07121e-05
5.32483e-05
5.51863e-05
5.66743e-05
5.78471e-05
5.88081e-05
5.96181e-05
6.0316e-05
6.09264e-05
6.14475e-05
6.18912e-05
6.22754e-05
6.26155e-05
6.29219e-05
6.32135e-05
6.34931e-05
6.37538e-05
6.39925e-05
6.42125e-05
6.44187e-05
6.46137e-05
6.47981e-05
6.49725e-05
6.51387e-05
6.52994e-05
6.54579e-05
6.56137e-05
6.5764e-05
6.59069e-05
6.60428e-05
6.61725e-05
6.62971e-05
6.64169e-05
3.88885e-05
3.24346e-05
2.67257e-05
2.55546e-05
2.83606e-05
3.31765e-05
3.84679e-05
4.33395e-05
4.7438e-05
5.07099e-05
5.32449e-05
5.51824e-05
5.66705e-05
5.78436e-05
5.8805e-05
5.96154e-05
6.03138e-05
6.09248e-05
6.14465e-05
6.18906e-05
6.22751e-05
6.26155e-05
6.29223e-05
6.32139e-05
6.34931e-05
6.37534e-05
6.3992e-05
6.42122e-05
6.4419e-05
6.46144e-05
6.47986e-05
6.49724e-05
6.51377e-05
6.5297e-05
6.54542e-05
6.56096e-05
6.57609e-05
6.59059e-05
6.60441e-05
6.61755e-05
6.63003e-05
6.64201e-05
3.89119e-05
3.2455e-05
2.67301e-05
2.555e-05
2.83547e-05
3.3173e-05
3.84673e-05
4.33412e-05
4.74408e-05
5.07133e-05
5.32489e-05
5.51865e-05
5.66741e-05
5.78466e-05
5.88075e-05
5.96175e-05
6.03152e-05
6.09256e-05
6.14467e-05
6.18904e-05
6.22747e-05
6.26149e-05
6.29215e-05
6.32133e-05
6.3493e-05
6.37537e-05
6.39921e-05
6.42117e-05
6.44179e-05
6.4613e-05
6.47975e-05
6.4972e-05
6.51383e-05
6.52987e-05
6.54568e-05
6.56124e-05
6.57627e-05
6.5906e-05
6.60423e-05
6.6172e-05
6.62959e-05
6.64157e-05
3.88883e-05
3.24348e-05
2.67264e-05
2.55554e-05
2.83612e-05
3.31767e-05
3.84679e-05
4.33394e-05
4.7438e-05
5.07099e-05
5.3245e-05
5.51823e-05
5.66699e-05
5.78426e-05
5.88035e-05
5.9613e-05
6.03103e-05
6.092e-05
6.14407e-05
6.18844e-05
6.22692e-05
6.26102e-05
6.29178e-05
6.32103e-05
6.34902e-05
6.37505e-05
6.39884e-05
6.42078e-05
6.44145e-05
6.46103e-05
6.47952e-05
6.49696e-05
6.51354e-05
6.52953e-05
6.5453e-05
6.56089e-05
6.57602e-05
6.59048e-05
6.60422e-05
6.61724e-05
6.62962e-05
6.64152e-05
3.89118e-05
3.24548e-05
2.67299e-05
2.55499e-05
2.83548e-05
3.31732e-05
3.84675e-05
4.33414e-05
4.74409e-05
5.07132e-05
5.32488e-05
5.51862e-05
5.66733e-05
5.78458e-05
5.88065e-05
5.96161e-05
6.03133e-05
6.09227e-05
6.14431e-05
6.18863e-05
6.22703e-05
6.26102e-05
6.29169e-05
6.32087e-05
6.34885e-05
6.37492e-05
6.39877e-05
6.4208e-05
6.44151e-05
6.4611e-05
6.47958e-05
6.497e-05
6.51354e-05
6.52951e-05
6.54531e-05
6.56096e-05
6.57615e-05
6.59059e-05
6.60424e-05
6.61717e-05
6.62951e-05
6.64147e-05
3.88883e-05
3.24348e-05
2.67264e-05
2.55554e-05
2.83612e-05
3.31768e-05
3.84679e-05
4.33394e-05
4.7438e-05
5.07097e-05
5.32448e-05
5.5182e-05
5.66695e-05
5.78424e-05
5.88034e-05
5.96129e-05
6.03103e-05
6.09199e-05
6.14405e-05
6.18841e-05
6.22689e-05
6.26098e-05
6.29175e-05
6.32098e-05
6.34897e-05
6.375e-05
6.39877e-05
6.42071e-05
6.4414e-05
6.46101e-05
6.47953e-05
6.49698e-05
6.51357e-05
6.52957e-05
6.54533e-05
6.56088e-05
6.57598e-05
6.59039e-05
6.60407e-05
6.61707e-05
6.62948e-05
6.64152e-05
3.89119e-05
3.24548e-05
2.67297e-05
2.55497e-05
2.83546e-05
3.3173e-05
3.84674e-05
4.33413e-05
4.74407e-05
5.07131e-05
5.32486e-05
5.51859e-05
5.66733e-05
5.78457e-05
5.88064e-05
5.9616e-05
6.03132e-05
6.09227e-05
6.14432e-05
6.18863e-05
6.22703e-05
6.26101e-05
6.29167e-05
6.32086e-05
6.34886e-05
6.37493e-05
6.39877e-05
6.42078e-05
6.44149e-05
6.46109e-05
6.47959e-05
6.49701e-05
6.51355e-05
6.52951e-05
6.54529e-05
6.56094e-05
6.57614e-05
6.5906e-05
6.60425e-05
6.61717e-05
6.62944e-05
6.64153e-05
3.88886e-05
3.24354e-05
2.67266e-05
2.5555e-05
2.83605e-05
3.31759e-05
3.84674e-05
4.33391e-05
4.74376e-05
5.07095e-05
5.32445e-05
5.51818e-05
5.66696e-05
5.78423e-05
5.88032e-05
5.96128e-05
6.031e-05
6.09197e-05
6.14404e-05
6.1884e-05
6.22687e-05
6.26097e-05
6.29172e-05
6.32097e-05
6.34897e-05
6.37499e-05
6.39875e-05
6.42068e-05
6.44135e-05
6.46097e-05
6.47948e-05
6.49693e-05
6.51351e-05
6.5295e-05
6.54525e-05
6.5608e-05
6.5759e-05
6.59035e-05
6.6041e-05
6.61715e-05
6.62957e-05
6.64163e-05
3.89092e-05
3.24477e-05
2.67261e-05
2.55506e-05
2.83577e-05
3.31764e-05
3.84702e-05
4.33431e-05
4.74416e-05
5.07133e-05
5.32482e-05
5.51851e-05
5.66722e-05
5.78443e-05
5.88051e-05
5.96147e-05
6.03118e-05
6.09212e-05
6.14416e-05
6.18848e-05
6.22688e-05
6.26088e-05
6.29154e-05
6.32073e-05
6.34871e-05
6.37477e-05
6.39863e-05
6.42065e-05
6.44136e-05
6.46096e-05
6.47944e-05
6.49684e-05
6.51339e-05
6.52936e-05
6.54515e-05
6.56079e-05
6.57597e-05
6.59042e-05
6.60408e-05
6.61702e-05
6.62934e-05
6.64146e-05
3.88886e-05
3.24353e-05
2.67265e-05
2.55549e-05
2.83603e-05
3.31758e-05
3.84674e-05
4.33392e-05
4.74377e-05
5.07097e-05
5.32446e-05
5.51818e-05
5.66695e-05
5.78421e-05
5.88032e-05
5.9613e-05
6.03101e-05
6.09197e-05
6.14403e-05
6.18839e-05
6.22687e-05
6.26098e-05
6.29173e-05
6.32097e-05
6.34896e-05
6.37497e-05
6.39875e-05
6.4207e-05
6.44137e-05
6.46099e-05
6.4795e-05
6.49697e-05
6.51358e-05
6.52961e-05
6.54539e-05
6.56093e-05
6.57597e-05
6.59033e-05
6.60399e-05
6.61697e-05
6.62933e-05
6.64129e-05
3.89119e-05
3.24548e-05
2.67296e-05
2.55495e-05
2.83543e-05
3.31727e-05
3.84673e-05
4.33413e-05
4.74407e-05
5.07132e-05
5.32486e-05
5.51858e-05
5.66731e-05
5.78454e-05
5.88065e-05
5.96164e-05
6.03135e-05
6.09229e-05
6.14434e-05
6.18867e-05
6.22709e-05
6.26111e-05
6.29177e-05
6.32094e-05
6.3489e-05
6.37495e-05
6.39882e-05
6.42086e-05
6.44158e-05
6.46118e-05
6.47967e-05
6.49712e-05
6.5137e-05
6.52967e-05
6.54538e-05
6.56087e-05
6.57592e-05
6.59034e-05
6.60409e-05
6.61714e-05
6.62956e-05
6.64149e-05
3.88885e-05
3.24344e-05
2.67255e-05
2.55545e-05
2.83605e-05
3.31763e-05
3.8468e-05
4.33398e-05
4.74381e-05
5.07098e-05
5.32445e-05
5.51816e-05
5.66696e-05
5.78427e-05
5.88046e-05
5.96155e-05
6.03136e-05
6.09242e-05
6.14455e-05
6.18893e-05
6.2274e-05
6.26147e-05
6.29214e-05
6.32127e-05
6.34915e-05
6.37516e-05
6.39903e-05
6.42108e-05
6.44178e-05
6.46136e-05
6.47982e-05
6.49725e-05
6.51381e-05
6.52978e-05
6.5455e-05
6.56101e-05
6.57606e-05
6.59047e-05
6.60421e-05
6.61729e-05
6.62972e-05
6.64172e-05
3.89128e-05
3.24568e-05
2.67293e-05
2.55466e-05
2.83504e-05
3.31688e-05
3.84642e-05
4.33391e-05
4.74392e-05
5.07122e-05
5.3248e-05
5.51854e-05
5.6673e-05
5.78455e-05
5.88068e-05
5.9617e-05
6.03142e-05
6.09236e-05
6.14439e-05
6.18873e-05
6.22717e-05
6.2612e-05
6.29184e-05
6.32099e-05
6.34895e-05
6.37503e-05
6.39895e-05
6.421e-05
6.44172e-05
6.46133e-05
6.47985e-05
6.49731e-05
6.51388e-05
6.52985e-05
6.54559e-05
6.5611e-05
6.57615e-05
6.59054e-05
6.60427e-05
6.61735e-05
6.62978e-05
6.64175e-05
3.88912e-05
3.2433e-05
2.6723e-05
2.55518e-05
2.83586e-05
3.31759e-05
3.84686e-05
4.33406e-05
4.74387e-05
5.07099e-05
5.32444e-05
5.51817e-05
5.66699e-05
5.78427e-05
5.88039e-05
5.96143e-05
6.03126e-05
6.09236e-05
6.14454e-05
6.18898e-05
6.22744e-05
6.26144e-05
6.292e-05
6.32108e-05
6.34899e-05
6.37508e-05
6.39902e-05
6.42109e-05
6.44178e-05
6.46133e-05
6.4798e-05
6.49726e-05
6.51389e-05
6.52992e-05
6.54571e-05
6.56124e-05
6.57624e-05
6.5905e-05
6.60408e-05
6.61704e-05
6.62946e-05
6.6415e-05
3.88767e-05
3.24077e-05
2.67152e-05
2.55585e-05
2.83703e-05
3.31859e-05
3.84749e-05
4.33436e-05
4.74391e-05
5.07086e-05
5.32422e-05
5.51789e-05
5.66665e-05
5.78389e-05
5.88002e-05
5.96107e-05
6.03088e-05
6.09195e-05
6.14412e-05
6.18856e-05
6.22707e-05
6.26116e-05
6.29182e-05
6.32092e-05
6.34879e-05
6.3748e-05
6.3987e-05
6.42077e-05
6.44147e-05
6.46102e-05
6.47946e-05
6.49689e-05
6.51348e-05
6.5295e-05
6.54528e-05
6.5608e-05
6.57582e-05
6.59014e-05
6.60379e-05
6.6168e-05
6.62922e-05
6.64123e-05
3.89108e-05
3.24515e-05
2.67264e-05
2.55459e-05
2.83511e-05
3.31703e-05
3.84656e-05
4.33401e-05
4.74397e-05
5.07123e-05
5.32478e-05
5.51851e-05
5.66725e-05
5.78448e-05
5.88058e-05
5.96155e-05
6.03127e-05
6.0922e-05
6.14424e-05
6.18856e-05
6.22698e-05
6.26101e-05
6.29166e-05
6.32082e-05
6.34879e-05
6.37489e-05
6.39879e-05
6.42083e-05
6.44152e-05
6.46111e-05
6.4796e-05
6.49704e-05
6.51362e-05
6.52962e-05
6.54543e-05
6.561e-05
6.57605e-05
6.59036e-05
6.60395e-05
6.61689e-05
6.62928e-05
6.64129e-05
3.88891e-05
3.24359e-05
2.6726e-05
2.55536e-05
2.83588e-05
3.31745e-05
3.84662e-05
4.33381e-05
4.7437e-05
5.07092e-05
5.32446e-05
5.51821e-05
5.66699e-05
5.78425e-05
5.88034e-05
5.96129e-05
6.03102e-05
6.09199e-05
6.14406e-05
6.18841e-05
6.22688e-05
6.26099e-05
6.29174e-05
6.32097e-05
6.34895e-05
6.37499e-05
6.39885e-05
6.42084e-05
6.44148e-05
6.46099e-05
6.47944e-05
6.4969e-05
6.51353e-05
6.52959e-05
6.54542e-05
6.56102e-05
6.57611e-05
6.59046e-05
6.60409e-05
6.61704e-05
6.62939e-05
6.64133e-05
3.8912e-05
3.24548e-05
2.67296e-05
2.55494e-05
2.83542e-05
3.31726e-05
3.84671e-05
4.33411e-05
4.74406e-05
5.07132e-05
5.32488e-05
5.51864e-05
5.66738e-05
5.78459e-05
5.88065e-05
5.96159e-05
6.03131e-05
6.09228e-05
6.14432e-05
6.18864e-05
6.22702e-05
6.26102e-05
6.29168e-05
6.32087e-05
6.34886e-05
6.37493e-05
6.39879e-05
6.42081e-05
6.44151e-05
6.46108e-05
6.47956e-05
6.49702e-05
6.51363e-05
6.52966e-05
6.54544e-05
6.56097e-05
6.576e-05
6.59033e-05
6.60396e-05
6.61694e-05
6.62931e-05
6.64128e-05
3.88883e-05
3.24348e-05
2.67263e-05
2.55551e-05
2.83609e-05
3.31764e-05
3.84678e-05
4.33393e-05
4.74378e-05
5.07098e-05
5.32449e-05
5.51822e-05
5.66699e-05
5.78425e-05
5.88034e-05
5.96131e-05
6.03103e-05
6.09199e-05
6.14405e-05
6.1884e-05
6.22688e-05
6.26099e-05
6.29175e-05
6.32099e-05
6.34897e-05
6.37499e-05
6.39878e-05
6.42074e-05
6.44141e-05
6.461e-05
6.47948e-05
6.49691e-05
6.51351e-05
6.52952e-05
6.5453e-05
6.56088e-05
6.57598e-05
6.59043e-05
6.60421e-05
6.6173e-05
6.62971e-05
6.64162e-05
3.89102e-05
3.24552e-05
2.673e-05
2.55499e-05
2.83547e-05
3.3173e-05
3.84675e-05
4.33414e-05
4.74407e-05
5.07132e-05
5.32488e-05
5.51862e-05
5.66736e-05
5.78459e-05
5.88066e-05
5.96162e-05
6.03135e-05
6.0923e-05
6.14436e-05
6.18869e-05
6.2271e-05
6.26111e-05
6.29177e-05
6.32094e-05
6.34891e-05
6.37498e-05
6.39886e-05
6.42091e-05
6.44161e-05
6.46117e-05
6.47962e-05
6.49704e-05
6.51362e-05
6.5296e-05
6.54533e-05
6.56085e-05
6.57593e-05
6.59036e-05
6.60413e-05
6.61722e-05
6.62966e-05
6.64161e-05
5.42645e-06
2.84971e-05
4.93558e-05
7.44276e-05
9.94262e-05
0.000121862
0.000140832
0.000156141
0.000168242
0.000177643
0.000184913
0.000190646
0.000195314
0.000199236
0.0002026
0.00020553
0.000208093
0.000210297
0.000212191
0.000213855
0.000215355
0.000216732
0.000218012
0.000219233
0.000220369
0.000221406
0.000222358
0.000223248
0.000224085
0.000224878
0.000225628
0.000226341
0.00022702
0.000227674
0.000228306
0.000228908
0.000229474
0.000230004
0.000230503
0.000230977
0.000231435
0.000231881
5.3753e-06
2.84842e-05
4.93437e-05
7.44165e-05
9.94233e-05
0.000121868
0.000140843
0.000156156
0.000168258
0.00017766
0.000184931
0.000190664
0.00019533
0.00019925
0.000202613
0.000205541
0.000208101
0.000210302
0.000212195
0.000213858
0.000215356
0.000216732
0.000218011
0.000219232
0.00022037
0.000221407
0.000222358
0.000223244
0.000224081
0.000224873
0.000225624
0.000226339
0.000227022
0.000227679
0.000228313
0.000228914
0.000229476
0.000230001
0.000230497
0.000230971
0.000231429
0.000231876
5.4164e-06
2.8494e-05
4.93569e-05
7.44318e-05
9.9433e-05
0.000121871
0.00014084
0.000156146
0.000168244
0.000177641
0.000184912
0.000190648
0.000195319
0.000199241
0.000202603
0.00020553
0.00020809
0.00021029
0.000212183
0.000213847
0.000215349
0.000216727
0.000218006
0.000219227
0.000220363
0.0002214
0.000222352
0.000223239
0.000224075
0.000224866
0.000225617
0.000226331
0.000227014
0.000227671
0.000228305
0.000228906
0.000229467
0.000229991
0.000230487
0.000230961
0.000231419
0.000231867
5.44826e-06
2.8516e-05
4.93849e-05
7.44611e-05
9.94524e-05
0.000121877
0.000140836
0.000156137
0.000168232
0.000177628
0.000184897
0.000190631
0.000195298
0.000199219
0.000202583
0.000205512
0.000208075
0.000210277
0.000212173
0.000213839
0.000215341
0.00021672
0.000218
0.000219221
0.000220358
0.000221395
0.000222346
0.000223234
0.00022407
0.000224862
0.000225613
0.000226327
0.000227009
0.000227664
0.000228296
0.000228897
0.00022946
0.000229988
0.000230488
0.000230965
0.000231425
0.000231874
5.37116e-06
2.848e-05
4.93414e-05
7.44159e-05
9.94256e-05
0.000121873
0.00014085
0.000156162
0.000168264
0.000177665
0.000184934
0.000190664
0.000195326
0.000199243
0.000202605
0.000205529
0.000208086
0.000210283
0.000212174
0.000213837
0.000215337
0.000216714
0.000217995
0.000219217
0.000220356
0.000221396
0.000222352
0.000223243
0.000224082
0.000224875
0.000225626
0.000226341
0.000227023
0.000227679
0.00022831
0.000228906
0.000229463
0.000229986
0.000230483
0.000230961
0.000231424
0.000231877
5.44714e-06
2.85144e-05
4.93827e-05
7.44587e-05
9.94503e-05
0.000121876
0.000140835
0.000156137
0.000168233
0.000177629
0.000184898
0.00019063
0.000195297
0.000199218
0.000202583
0.000205512
0.000208075
0.000210279
0.000212174
0.00021384
0.000215342
0.00021672
0.000218
0.000219221
0.000220357
0.000221394
0.000222346
0.000223234
0.000224071
0.000224864
0.000225615
0.00022633
0.000227012
0.000227668
0.000228301
0.0002289
0.00022946
0.000229985
0.000230484
0.000230963
0.000231425
0.000231874
5.41336e-06
2.84903e-05
4.9352e-05
7.44266e-05
9.94288e-05
0.000121868
0.000140838
0.000156147
0.000168246
0.000177644
0.000184914
0.000190649
0.000195318
0.000199241
0.000202604
0.000205531
0.000208091
0.000210291
0.000212183
0.000213848
0.00021535
0.000216728
0.000218007
0.000219227
0.000220363
0.0002214
0.000222352
0.000223239
0.000224076
0.000224867
0.000225617
0.000226331
0.000227014
0.000227672
0.000228307
0.000228908
0.000229469
0.000229993
0.000230488
0.000230962
0.000231421
0.000231869
5.37547e-06
2.84833e-05
4.93443e-05
7.44187e-05
9.94267e-05
0.000121872
0.000140847
0.000156159
0.000168261
0.000177661
0.000184931
0.000190662
0.000195326
0.000199246
0.000202611
0.000205539
0.000208099
0.000210299
0.000212191
0.000213854
0.000215354
0.00021673
0.000218009
0.000219229
0.000220365
0.000221402
0.000222354
0.000223241
0.000224078
0.00022487
0.000225621
0.000226335
0.000227018
0.000227676
0.000228311
0.000228912
0.000229473
0.000229998
0.000230494
0.000230969
0.000231427
0.000231874
5.44817e-06
2.85154e-05
4.93841e-05
7.44596e-05
9.94508e-05
0.000121876
0.000140835
0.000156136
0.000168231
0.000177627
0.000184896
0.000190629
0.000195297
0.000199218
0.000202583
0.000205514
0.000208078
0.000210283
0.000212179
0.000213845
0.000215347
0.000216725
0.000218004
0.000219223
0.000220358
0.000221394
0.000222347
0.000223237
0.000224075
0.000224866
0.000225615
0.000226328
0.000227009
0.000227665
0.0002283
0.000228902
0.000229467
0.000229995
0.000230494
0.00023097
0.000231428
0.000231874
5.4171e-06
2.84943e-05
4.93566e-05
7.44307e-05
9.94315e-05
0.000121869
0.000140838
0.000156146
0.000168244
0.000177643
0.000184914
0.000190648
0.000195316
0.000199235
0.000202597
0.000205525
0.000208088
0.000210291
0.000212185
0.000213849
0.000215347
0.000216722
0.000217999
0.000219219
0.000220357
0.000221395
0.000222349
0.000223238
0.000224076
0.000224869
0.000225622
0.000226337
0.000227021
0.00022768
0.000228315
0.000228918
0.00022948
0.000230005
0.000230502
0.000230977
0.000231436
0.000231883
5.37392e-06
2.84822e-05
4.93406e-05
7.44127e-05
9.942e-05
0.000121865
0.000140842
0.000156156
0.000168259
0.000177661
0.000184933
0.000190665
0.000195331
0.000199251
0.000202615
0.000205543
0.000208103
0.000210304
0.000212196
0.000213858
0.000215357
0.000216734
0.000218012
0.000219233
0.000220369
0.000221406
0.000222358
0.000223246
0.000224083
0.000224876
0.000225627
0.000226341
0.000227024
0.000227681
0.000228315
0.000228917
0.000229479
0.000230005
0.000230502
0.000230977
0.000231436
0.000231882
5.42681e-06
2.84969e-05
4.93561e-05
7.44287e-05
9.94276e-05
0.000121863
0.000140832
0.000156141
0.000168242
0.000177644
0.000184914
0.000190647
0.000195314
0.000199236
0.000202602
0.000205532
0.000208096
0.000210299
0.000212194
0.000213857
0.000215357
0.000216735
0.000218015
0.000219235
0.00022037
0.000221407
0.000222359
0.000223248
0.000224085
0.000224878
0.000225628
0.000226339
0.000227017
0.00022767
0.000228303
0.000228908
0.000229477
0.000230009
0.00023051
0.000230988
0.000231446
0.000231893
5.37996e-06
2.84915e-05
4.9355e-05
7.44288e-05
9.94332e-05
0.000121874
0.000140847
0.000156157
0.000168258
0.000177659
0.00018493
0.000190662
0.000195327
0.000199246
0.00020261
0.000205538
0.000208099
0.0002103
0.000212192
0.000213855
0.000215354
0.000216731
0.00021801
0.000219231
0.000220368
0.000221404
0.000222355
0.000223243
0.00022408
0.000224873
0.000225624
0.000226338
0.00022702
0.000227676
0.00022831
0.000228912
0.000229475
0.000230001
0.000230498
0.000230973
0.000231431
0.000231878
5.42758e-06
2.84973e-05
4.93558e-05
7.44278e-05
9.94261e-05
0.000121861
0.00014083
0.00015614
0.000168242
0.000177645
0.000184917
0.000190649
0.000195314
0.000199233
0.000202595
0.00020552
0.000208077
0.000210276
0.000212168
0.000213832
0.000215334
0.000216715
0.000217997
0.00021922
0.000220357
0.000221393
0.000222344
0.000223231
0.000224069
0.000224862
0.000225614
0.000226327
0.000227008
0.000227664
0.000228298
0.000228902
0.000229469
0.000229999
0.000230498
0.000230972
0.000231428
0.000231874
5.38015e-06
2.84919e-05
4.93556e-05
7.44294e-05
9.94338e-05
0.000121875
0.000140847
0.000156157
0.000168258
0.000177659
0.00018493
0.00019066
0.000195323
0.000199241
0.000202602
0.000205527
0.000208084
0.000210281
0.000212171
0.000213834
0.000215334
0.000216711
0.000217992
0.000219215
0.000220353
0.000221391
0.000222343
0.000223233
0.000224072
0.000224866
0.000225617
0.000226328
0.000227007
0.000227664
0.0002283
0.000228905
0.000229471
0.000229997
0.000230494
0.000230969
0.000231426
0.000231872
5.42754e-06
2.84972e-05
4.93556e-05
7.44276e-05
9.94259e-05
0.000121861
0.00014083
0.00015614
0.000168242
0.000177645
0.000184916
0.000190648
0.000195313
0.000199232
0.000202594
0.000205519
0.000208077
0.000210275
0.000212166
0.000213831
0.000215333
0.000216713
0.000217996
0.000219218
0.000220355
0.000221391
0.000222342
0.00022323
0.000224068
0.000224862
0.000225614
0.000226328
0.000227009
0.000227664
0.000228298
0.000228901
0.000229466
0.000229994
0.000230493
0.00023097
0.000231429
0.000231876
5.37989e-06
2.84915e-05
4.93548e-05
7.44287e-05
9.94333e-05
0.000121874
0.000140847
0.000156158
0.000168258
0.000177659
0.000184929
0.000190659
0.000195323
0.000199241
0.000202602
0.000205527
0.000208084
0.000210281
0.000212172
0.000213834
0.000215334
0.000216711
0.000217992
0.000219215
0.000220353
0.000221391
0.000222343
0.000223233
0.000224072
0.000224866
0.000225617
0.000226328
0.000227008
0.000227664
0.0002283
0.000228905
0.00022947
0.000229997
0.000230494
0.000230969
0.000231426
0.000231875
5.42633e-06
2.84958e-05
4.93537e-05
7.44256e-05
9.94242e-05
0.00012186
0.00014083
0.00015614
0.000168242
0.000177645
0.000184916
0.000190648
0.000195313
0.000199232
0.000202594
0.000205519
0.000208076
0.000210275
0.000212166
0.00021383
0.000215333
0.000216713
0.000217995
0.000219218
0.000220355
0.000221391
0.000222341
0.000223229
0.000224067
0.000224861
0.000225612
0.000226326
0.000227007
0.000227662
0.000228296
0.000228899
0.000229464
0.000229994
0.000230495
0.000230973
0.000231433
0.00023188
5.38657e-06
2.84985e-05
4.93654e-05
7.44409e-05
9.94434e-05
0.000121881
0.00014085
0.000156158
0.000168256
0.000177656
0.000184925
0.000190655
0.000195318
0.000199235
0.000202597
0.000205522
0.000208079
0.000210276
0.000212167
0.000213829
0.000215329
0.000216707
0.000217987
0.00021921
0.000220348
0.000221386
0.000222339
0.000223228
0.000224067
0.000224861
0.000225612
0.000226323
0.000227003
0.000227659
0.000228296
0.000228901
0.000229465
0.000229992
0.00023049
0.000230966
0.000231424
0.000231873
5.42625e-06
2.84957e-05
4.93536e-05
7.44255e-05
9.94242e-05
0.00012186
0.00014083
0.00015614
0.000168243
0.000177645
0.000184917
0.000190648
0.000195313
0.000199232
0.000202594
0.00020552
0.000208077
0.000210275
0.000212166
0.00021383
0.000215333
0.000216713
0.000217996
0.000219218
0.000220355
0.000221391
0.000222341
0.000223229
0.000224068
0.000224862
0.000225614
0.000226329
0.00022701
0.000227666
0.000228299
0.000228901
0.000229465
0.000229993
0.000230491
0.000230965
0.000231422
0.000231868
5.37968e-06
2.84911e-05
4.93543e-05
7.44281e-05
9.94326e-05
0.000121873
0.000140846
0.000156157
0.000168258
0.00017766
0.00018493
0.00019066
0.000195323
0.00019924
0.000202603
0.000205529
0.000208085
0.000210283
0.000212174
0.000213836
0.000215337
0.000216715
0.000217995
0.000219217
0.000220355
0.000221393
0.000222346
0.000223236
0.000224075
0.000224869
0.000225621
0.000226334
0.000227013
0.000227666
0.000228298
0.000228899
0.000229465
0.000229995
0.000230495
0.00023097
0.000231426
0.000231872
5.42675e-06
2.84966e-05
4.93555e-05
7.44281e-05
9.94268e-05
0.000121862
0.000140832
0.000156142
0.000168243
0.000177645
0.000184914
0.000190645
0.000195312
0.000199233
0.0002026
0.000205531
0.000208093
0.000210295
0.000212188
0.000213852
0.000215353
0.000216731
0.00021801
0.00021923
0.000220365
0.000221402
0.000222355
0.000223245
0.000224084
0.000224877
0.000225628
0.00022634
0.000227019
0.000227672
0.000228304
0.000228907
0.000229473
0.000230003
0.000230502
0.000230977
0.000231435
0.000231882
5.37572e-06
2.84848e-05
4.93446e-05
7.44176e-05
9.94242e-05
0.000121868
0.000140844
0.000156157
0.000168259
0.000177662
0.000184932
0.000190662
0.000195325
0.000199243
0.000202606
0.000205532
0.000208089
0.000210286
0.000212177
0.00021384
0.00021534
0.000216718
0.000217998
0.00021922
0.000220358
0.000221397
0.000222352
0.000223242
0.000224082
0.000224877
0.000225628
0.000226341
0.000227022
0.000227676
0.000228309
0.000228912
0.000229477
0.000230007
0.000230506
0.000230981
0.000231437
0.000231883
5.41731e-06
2.8495e-05
4.93579e-05
7.44324e-05
9.94331e-05
0.00012187
0.000140839
0.000156146
0.000168244
0.000177643
0.000184913
0.000190646
0.000195314
0.000199233
0.000202595
0.000205524
0.000208087
0.00021029
0.000212185
0.000213849
0.000215348
0.000216724
0.000218001
0.000219221
0.000220358
0.000221397
0.000222352
0.000223242
0.000224081
0.000224874
0.000225626
0.00022634
0.000227022
0.000227678
0.000228312
0.000228914
0.000229476
0.000230001
0.000230497
0.000230972
0.000231431
0.000231879
5.44926e-06
2.85176e-05
4.9387e-05
7.44628e-05
9.94533e-05
0.000121877
0.000140836
0.000156138
0.000168233
0.00017763
0.000184898
0.00019063
0.000195297
0.000199217
0.000202582
0.000205513
0.000208077
0.000210281
0.000212177
0.000213843
0.000215346
0.000216724
0.000218003
0.000219221
0.000220356
0.000221394
0.000222347
0.000223237
0.000224076
0.000224869
0.000225619
0.000226332
0.000227012
0.000227667
0.0002283
0.000228901
0.000229465
0.000229992
0.00023049
0.000230964
0.000231422
0.000231869
5.3783e-06
2.8488e-05
4.93513e-05
7.44259e-05
9.94323e-05
0.000121875
0.000140848
0.000156159
0.00016826
0.00017766
0.00018493
0.000190659
0.000195323
0.00019924
0.000202602
0.000205527
0.000208084
0.000210281
0.000212172
0.000213834
0.000215334
0.000216712
0.000217992
0.000219215
0.000220353
0.000221392
0.000222346
0.000223236
0.000224076
0.000224869
0.00022562
0.000226333
0.000227014
0.000227671
0.000228306
0.000228908
0.000229471
0.000229996
0.000230492
0.000230967
0.000231425
0.000231873
5.42426e-06
2.84932e-05
4.93501e-05
7.44218e-05
9.94213e-05
0.000121858
0.000140829
0.00015614
0.000168242
0.000177646
0.000184918
0.00019065
0.000195315
0.000199234
0.000202596
0.000205521
0.000208078
0.000210276
0.000212168
0.000213832
0.000215334
0.000216714
0.000217996
0.000219219
0.000220356
0.000221394
0.000222345
0.000223233
0.00022407
0.000224862
0.000225613
0.000226327
0.000227008
0.000227664
0.0002283
0.000228903
0.000229467
0.000229994
0.00023049
0.000230964
0.000231421
0.000231867
5.37929e-06
2.84909e-05
4.93543e-05
7.44282e-05
9.9433e-05
0.000121874
0.000140847
0.000156158
0.000168258
0.000177659
0.00018493
0.000190661
0.000195324
0.000199242
0.000202602
0.000205527
0.000208084
0.000210281
0.000212172
0.000213834
0.000215334
0.000216711
0.000217992
0.000219215
0.000220353
0.000221391
0.000222344
0.000223233
0.000224072
0.000224866
0.000225617
0.000226331
0.000227011
0.000227667
0.0002283
0.000228902
0.000229465
0.000229991
0.000230488
0.000230963
0.000231421
0.000231867
5.42734e-06
2.84969e-05
4.93552e-05
7.44273e-05
9.94258e-05
0.000121861
0.00014083
0.00015614
0.000168242
0.000177645
0.000184917
0.000190649
0.000195314
0.000199233
0.000202595
0.00020552
0.000208077
0.000210275
0.000212167
0.00021383
0.000215333
0.000216714
0.000217996
0.000219219
0.000220355
0.000221391
0.000222342
0.00022323
0.000224068
0.000224861
0.000225613
0.000226327
0.000227008