/*--------------------------------*- C++ -*----------------------------------*\
  =========                 |
  \\      /  F ield         | OpenFOAM: The Open Source CFD Toolbox
   \\    /   O peration     | Website:  https://openfoam.org
    \\  /    A nd           | Version:  9
     \\/     M anipulation  |
\*---------------------------------------------------------------------------*/
FoamFile
{
    format      ascii;
    class       volScalarField;
    location    "1200";
    object      omega;
}
// * * * * * * * * * * * * * * * * * * * * * * * * * * * * * * * * * * * * * //

dimensions      [0 0 -1 0 0 0 0];

internalField   nonuniform List<scalar> 
82350
(
4798.99
6586.49
6199.75
5937.52
5972.93
6120.02
6265.08
6374.45
6449.18
6497.66
6527.97
6546.72
6558.63
6566.69
6572.66
6577.47
6581.43
6584.38
6586.48
6588.16
6589.81
6591.59
6593.56
6595.72
6597.96
6600.18
6602.4
6604.72
6607.22
6609.91
6612.74
6615.7
6618.81
6622.15
6625.71
6629.39
6633.08
6636.73
6640.35
6643.99
6647.68
6651.45
4798.99
6588.52
6200.93
5937.69
5972.74
6119.93
6265.14
6374.62
6449.38
6497.87
6528.21
6546.95
6558.84
6566.87
6572.81
6577.6
6581.54
6584.47
6586.55
6588.21
6589.86
6591.63
6593.6
6595.78
6598.04
6600.27
6602.46
6604.74
6607.22
6609.91
6612.77
6615.76
6618.91
6622.27
6625.84
6629.49
6633.13
6636.72
6640.3
6643.93
6647.62
6651.41
4798.99
6586.28
6199.46
5937.19
5972.67
6119.87
6264.98
6374.37
6449.09
6497.56
6527.89
6546.67
6558.59
6566.65
6572.58
6577.35
6581.26
6584.18
6586.26
6587.95
6589.63
6591.41
6593.39
6595.57
6597.83
6600.07
6602.28
6604.58
6607.07
6609.76
6612.61
6615.59
6618.74
6622.11
6625.67
6629.33
6632.96
6636.53
6640.11
6643.75
6647.46
6651.26
4798.99
6584.14
6197.98
5936.83
5972.78
6119.91
6264.84
6374.12
6448.77
6497.19
6527.5
6546.25
6558.15
6566.22
6572.19
6576.98
6580.92
6583.86
6585.97
6587.68
6589.36
6591.15
6593.13
6595.31
6597.56
6599.79
6602
6604.3
6606.8
6609.49
6612.35
6615.34
6618.48
6621.83
6625.4
6629.07
6632.74
6636.38
6640.01
6643.68
6647.41
6651.22
4798.99
6588.16
6200.51
5937.21
5972.3
6119.59
6264.89
6374.42
6449.19
6497.66
6527.97
6546.7
6558.57
6566.62
6572.56
6577.31
6581.2
6584.1
6586.16
6587.84
6589.49
6591.26
6593.23
6595.41
6597.7
6599.97
6602.22
6604.56
6607.07
6609.77
6612.62
6615.6
6618.73
6622.07
6625.59
6629.2
6632.8
6636.38
6639.99
6643.68
6647.44
6651.28
4798.99
6584.17
6197.99
5936.79
5972.74
6119.87
6264.82
6374.11
6448.77
6497.17
6527.47
6546.21
6558.11
6566.2
6572.18
6576.98
6580.92
6583.87
6585.97
6587.68
6589.37
6591.16
6593.13
6595.29
6597.55
6599.78
6601.99
6604.3
6606.81
6609.51
6612.38
6615.37
6618.51
6621.86
6625.42
6629.07
6632.71
6636.32
6639.95
6643.64
6647.39
6651.21
4798.99
6586.3
6199.44
5937.1
5972.54
6119.77
6264.91
6374.32
6449.05
6497.5
6527.82
6546.59
6558.52
6566.61
6572.56
6577.33
6581.23
6584.13
6586.21
6587.92
6589.61
6591.39
6593.36
6595.53
6597.79
6600.03
6602.25
6604.56
6607.05
6609.74
6612.58
6615.56
6618.72
6622.09
6625.67
6629.32
6632.95
6636.52
6640.09
6643.73
6647.43
6651.23
4798.99
6588.08
6200.44
5937.28
5972.43
6119.71
6264.98
6374.47
6449.23
6497.69
6528
6546.73
6558.63
6566.71
6572.68
6577.46
6581.38
6584.31
6586.39
6588.07
6589.73
6591.5
6593.46
6595.63
6597.88
6600.11
6602.32
6604.62
6607.11
6609.8
6612.65
6615.63
6618.79
6622.17
6625.74
6629.41
6633.05
6636.63
6640.21
6643.84
6647.54
6651.33
4798.99
6584.27
6198.15
5936.94
5972.83
6119.93
6264.87
6374.16
6448.81
6497.23
6527.53
6546.28
6558.2
6566.27
6572.26
6577.08
6581.03
6584
6586.12
6587.84
6589.52
6591.3
6593.25
6595.4
6597.64
6599.88
6602.12
6604.45
6606.96
6609.65
6612.49
6615.46
6618.61
6621.99
6625.59
6629.28
6632.97
6636.6
6640.21
6643.86
6647.56
6651.32
4798.99
6586.31
6199.54
5937.26
5972.7
6119.89
6265.01
6374.41
6449.12
6497.6
6527.91
6546.65
6558.57
6566.63
6572.59
6577.4
6581.35
6584.31
6586.41
6588.08
6589.72
6591.46
6593.4
6595.56
6597.82
6600.06
6602.3
6604.62
6607.12
6609.83
6612.7
6615.7
6618.86
6622.24
6625.82
6629.48
6633.13
6636.72
6640.3
6643.93
6647.63
6651.4
4798.99
6588.69
6201.1
5937.78
5972.76
6119.94
6265.16
6374.65
6449.41
6497.92
6528.23
6546.96
6558.86
6566.91
6572.86
6577.66
6581.58
6584.51
6586.59
6588.26
6589.9
6591.67
6593.63
6595.8
6598.05
6600.27
6602.48
6604.78
6607.27
6609.97
6612.82
6615.8
6618.93
6622.3
6625.87
6629.53
6633.18
6636.77
6640.36
6643.99
6647.7
6651.46
4798.99
6586.39
6199.73
5937.52
5972.94
6120.04
6265.1
6374.48
6449.21
6497.69
6527.99
6546.72
6558.64
6566.71
6572.7
6577.52
6581.46
6584.42
6586.52
6588.2
6589.87
6591.65
6593.61
6595.77
6598.01
6600.23
6602.45
6604.76
6607.26
6609.94
6612.76
6615.71
6618.8
6622.14
6625.71
6629.41
6633.13
6636.81
6640.46
6644.12
6647.81
6651.57
4798.99
6588.37
6200.87
5937.82
5972.96
6120.14
6265.31
6374.76
6449.48
6497.96
6528.26
6546.97
6558.86
6566.9
6572.86
6577.64
6581.56
6584.49
6586.57
6588.25
6589.9
6591.67
6593.64
6595.81
6598.06
6600.27
6602.46
6604.76
6607.25
6609.94
6612.8
6615.77
6618.9
6622.25
6625.81
6629.48
6633.14
6636.74
6640.33
6643.96
6647.65
6651.42
4798.99
6586.39
6199.77
5937.57
5972.98
6120.06
6265.11
6374.49
6449.23
6497.71
6528
6546.71
6558.6
6566.66
6572.61
6577.37
6581.27
6584.18
6586.27
6587.97
6589.66
6591.48
6593.47
6595.65
6597.89
6600.08
6602.27
6604.57
6607.08
6609.78
6612.63
6615.58
6618.7
6622.04
6625.62
6629.31
6633.01
6636.65
6640.25
6643.88
6647.55
6651.29
4798.99
6588.36
6200.84
5937.8
5972.96
6120.14
6265.32
6374.76
6449.49
6497.95
6528.24
6546.94
6558.81
6566.85
6572.78
6577.52
6581.4
6584.29
6586.34
6588
6589.64
6591.41
6593.37
6595.55
6597.8
6600.03
6602.25
6604.57
6607.08
6609.78
6612.62
6615.57
6618.67
6622.02
6625.6
6629.3
6632.99
6636.6
6640.17
6643.78
6647.45
6651.21
4798.99
6586.38
6199.77
5937.57
5972.98
6120.06
6265.11
6374.49
6449.22
6497.68
6527.97
6546.69
6558.58
6566.65
6572.6
6577.36
6581.26
6584.17
6586.25
6587.95
6589.64
6591.44
6593.44
6595.61
6597.85
6600.04
6602.23
6604.53
6607.05
6609.76
6612.61
6615.57
6618.67
6622.01
6625.56
6629.24
6632.92
6636.54
6640.15
6643.78
6647.47
6651.25
4798.99
6588.36
6200.83
5937.8
5972.95
6120.13
6265.3
6374.75
6449.46
6497.93
6528.22
6546.93
6558.8
6566.83
6572.76
6577.51
6581.39
6584.29
6586.34
6587.99
6589.63
6591.39
6593.36
6595.54
6597.8
6600.03
6602.24
6604.55
6607.07
6609.77
6612.61
6615.56
6618.66
6622
6625.58
6629.29
6632.98
6636.59
6640.17
6643.78
6647.43
6651.23
4798.99
6586.42
6199.79
5937.57
5972.95
6120.02
6265.07
6374.46
6449.19
6497.66
6527.96
6546.67
6558.57
6566.63
6572.58
6577.34
6581.24
6584.15
6586.23
6587.93
6589.61
6591.42
6593.42
6595.6
6597.83
6600.02
6602.2
6604.5
6607.02
6609.73
6612.58
6615.53
6618.64
6621.98
6625.53
6629.21
6632.91
6636.56
6640.18
6643.83
6647.51
6651.28
4798.99
6587.82
6200.36
5937.63
5972.97
6120.16
6265.31
6374.72
6449.4
6497.85
6528.13
6546.82
6558.7
6566.72
6572.66
6577.41
6581.28
6584.17
6586.23
6587.88
6589.52
6591.29
6593.26
6595.44
6597.7
6599.92
6602.13
6604.45
6606.97
6609.67
6612.5
6615.45
6618.56
6621.91
6625.49
6629.19
6632.88
6636.5
6640.09
6643.71
6647.38
6651.18
4798.99
6586.42
6199.79
5937.55
5972.93
6120.01
6265.08
6374.47
6449.19
6497.67
6527.95
6546.66
6558.56
6566.62
6572.58
6577.35
6581.23
6584.14
6586.23
6587.93
6589.62
6591.43
6593.42
6595.59
6597.83
6600.02
6602.21
6604.51
6607.03
6609.75
6612.6
6615.56
6618.68
6622.02
6625.57
6629.22
6632.88
6636.49
6640.08
6643.7
6647.38
6651.14
4798.99
6588.36
6200.83
5937.79
5972.94
6120.11
6265.31
6374.76
6449.47
6497.94
6528.22
6546.91
6558.79
6566.83
6572.78
6577.53
6581.4
6584.3
6586.36
6588.02
6589.66
6591.44
6593.4
6595.57
6597.82
6600.05
6602.27
6604.6
6607.12
6609.83
6612.67
6615.62
6618.72
6622.05
6625.59
6629.26
6632.94
6636.58
6640.2
6643.84
6647.52
6651.28
4798.99
6586.36
6199.71
5937.5
5972.92
6120.02
6265.09
6374.48
6449.2
6497.66
6527.93
6546.64
6558.58
6566.68
6572.68
6577.49
6581.41
6584.35
6586.44
6588.13
6589.8
6591.58
6593.52
6595.66
6597.89
6600.11
6602.34
6604.67
6607.18
6609.88
6612.72
6615.67
6618.77
6622.1
6625.65
6629.33
6633.02
6636.67
6640.3
6643.95
6647.65
6651.42
4798.99
6588.51
6200.91
5937.7
5972.76
6119.95
6265.18
6374.67
6449.4
6497.88
6528.17
6546.87
6558.77
6566.82
6572.77
6577.54
6581.41
6584.3
6586.37
6588.03
6589.68
6591.45
6593.4
6595.57
6597.84
6600.08
6602.32
6604.65
6607.17
6609.89
6612.73
6615.69
6618.79
6622.12
6625.67
6629.34
6633.02
6636.66
6640.29
6643.93
6647.61
6651.37
4798.99
6586.28
6199.5
5937.25
5972.72
6119.9
6265.03
6374.42
6449.12
6497.58
6527.88
6546.61
6558.54
6566.61
6572.59
6577.4
6581.35
6584.3
6586.4
6588.09
6589.73
6591.48
6593.41
6595.56
6597.82
6600.06
6602.3
6604.63
6607.13
6609.83
6612.67
6615.64
6618.76
6622.1
6625.65
6629.3
6632.94
6636.53
6640.12
6643.76
6647.47
6651.26
4798.99
6584.23
6198.11
5936.95
5972.9
6119.99
6264.92
6374.21
6448.84
6497.26
6527.54
6546.27
6558.18
6566.25
6572.23
6577.05
6580.99
6583.95
6586.07
6587.78
6589.46
6591.24
6593.18
6595.32
6597.56
6599.79
6602.03
6604.37
6606.88
6609.57
6612.41
6615.38
6618.5
6621.85
6625.4
6629.06
6632.73
6636.34
6639.96
6643.61
6647.32
6651.11
4798.99
6588.09
6200.55
5937.48
5972.65
6119.88
6265.11
6374.58
6449.31
6497.78
6528.07
6546.78
6558.66
6566.7
6572.64
6577.39
6581.27
6584.16
6586.22
6587.89
6589.53
6591.31
6593.27
6595.44
6597.71
6599.95
6602.17
6604.5
6607.01
6609.72
6612.56
6615.52
6618.63
6621.98
6625.54
6629.21
6632.86
6636.46
6640.04
6643.67
6647.37
6651.15
4798.99
6586.46
6199.79
5937.49
5972.86
6119.95
6265.02
6374.42
6449.16
6497.65
6527.95
6546.67
6558.57
6566.62
6572.57
6577.33
6581.23
6584.14
6586.22
6587.92
6589.61
6591.42
6593.41
6595.58
6597.83
6600.04
6602.24
6604.54
6607.03
6609.73
6612.57
6615.55
6618.68
6622.03
6625.6
6629.28
6632.94
6636.53
6640.11
6643.72
6647.39
6651.14
4798.99
6588.36
6200.84
5937.78
5972.93
6120.11
6265.29
6374.74
6449.46
6497.94
6528.24
6546.95
6558.81
6566.84
6572.76
6577.51
6581.39
6584.29
6586.34
6587.99
6589.63
6591.4
6593.37
6595.54
6597.8
6600.03
6602.24
6604.56
6607.07
6609.78
6612.62
6615.59
6618.7
6622.04
6625.59
6629.24
6632.89
6636.49
6640.07
6643.7
6647.37
6651.13
4798.99
6586.39
6199.77
5937.56
5972.96
6120.04
6265.1
6374.49
6449.22
6497.69
6527.98
6546.69
6558.59
6566.65
6572.6
6577.36
6581.25
6584.16
6586.25
6587.94
6589.64
6591.45
6593.44
6595.61
6597.85
6600.04
6602.23
6604.54
6607.05
6609.75
6612.59
6615.55
6618.67
6622.01
6625.58
6629.28
6632.97
6636.62
6640.24
6643.87
6647.53
6651.26
4798.99
6588.46
6200.85
5937.81
5972.95
6120.13
6265.31
6374.76
6449.47
6497.94
6528.24
6546.94
6558.82
6566.85
6572.78
6577.53
6581.41
6584.31
6586.37
6588.03
6589.67
6591.44
6593.4
6595.58
6597.83
6600.07
6602.29
6604.62
6607.13
6609.82
6612.65
6615.6
6618.71
6622.04
6625.6
6629.29
6632.99
6636.64
6640.26
6643.9
6647.58
6651.33
5661.48
4515.05
4724.78
4968.03
4920.81
4659.27
4341.05
4056.09
3828.61
3653.56
3520.19
3417.87
3337.89
3273.79
3221.34
3177.88
3141.74
3111.72
3086.39
3064.73
3046.08
3029.92
3015.82
3003.17
2991.68
2981.31
2972.04
2963.75
2956.35
2949.71
2943.75
2938.41
2933.62
2929.32
2925.36
2921.69
2918.31
2915.23
2912.46
2909.98
2907.78
2905.84
5662.41
4515.72
4725.26
4968.68
4921.56
4659.92
4341.5
4056.39
3828.8
3653.66
3520.23
3417.9
3337.93
3273.82
3221.36
3177.9
3141.77
3111.75
3086.42
3064.77
3046.12
3029.97
3015.86
3003.2
2991.71
2981.35
2972.08
2963.79
2956.39
2949.76
2943.8
2938.46
2933.66
2929.33
2925.37
2921.7
2918.34
2915.26
2912.48
2910
2907.8
2905.87
5661.35
4515.1
4724.96
4968.18
4920.86
4659.21
4340.92
4055.95
3828.49
3653.46
3520.08
3417.77
3337.8
3273.7
3221.24
3177.79
3141.68
3111.67
3086.35
3064.69
3046.05
3029.9
3015.8
3003.15
2991.66
2981.29
2972.01
2963.73
2956.33
2949.69
2943.74
2938.4
2933.59
2929.27
2925.31
2921.65
2918.28
2915.21
2912.43
2909.96
2907.78
2905.84
5661.61
4515.71
4725
4967.5
4919.83
4658.22
4340.13
4055.36
3828.05
3653.11
3519.8
3417.55
3337.61
3273.53
3221.09
3177.64
3141.53
3111.52
3086.19
3064.55
3045.91
3029.76
3015.65
3003
2991.52
2981.16
2971.89
2963.62
2956.22
2949.59
2943.64
2938.3
2933.5
2929.19
2925.24
2921.59
2918.22
2915.14
2912.37
2909.9
2907.7
2905.77
5662.38
4515.76
4725.4
4968.85
4921.66
4659.9
4341.39
4056.22
3828.61
3653.46
3520.03
3417.71
3337.74
3273.63
3221.17
3177.71
3141.59
3111.59
3086.28
3064.63
3045.99
3029.84
3015.74
3003.1
2991.61
2981.25
2971.97
2963.69
2956.29
2949.65
2943.69
2938.35
2933.54
2929.22
2925.27
2921.61
2918.26
2915.19
2912.43
2909.95
2907.74
2905.79
5661.59
4515.66
4724.97
4967.51
4919.87
4658.26
4340.17
4055.38
3828.06
3653.11
3519.8
3417.55
3337.62
3273.54
3221.09
3177.64
3141.52
3111.51
3086.19
3064.54
3045.9
3029.75
3015.64
3003
2991.52
2981.16
2971.89
2963.61
2956.22
2949.58
2943.63
2938.29
2933.49
2929.17
2925.21
2921.57
2918.21
2915.15
2912.37
2909.87
2907.67
2905.74
5661.33
4515.05
4724.95
4968.23
4920.96
4659.31
4340.98
4055.97
3828.48
3653.44
3520.06
3417.75
3337.78
3273.68
3221.22
3177.76
3141.65
3111.65
3086.33
3064.68
3046.04
3029.88
3015.78
3003.13
2991.64
2981.27
2972
2963.71
2956.31
2949.68
2943.73
2938.39
2933.58
2929.26
2925.29
2921.63
2918.26
2915.19
2912.42
2909.95
2907.76
2905.82
5662.41
4515.81
4725.4
4968.77
4921.57
4659.84
4341.38
4056.25
3828.66
3653.53
3520.11
3417.8
3337.84
3273.73
3221.27
3177.81
3141.68
3111.68
3086.35
3064.7
3046.05
3029.9
3015.79
3003.14
2991.65
2981.29
2972.02
2963.74
2956.34
2949.71
2943.76
2938.43
2933.62
2929.3
2925.33
2921.67
2918.3
2915.23
2912.45
2909.97
2907.78
2905.84
5661.6
4515.62
4724.92
4967.47
4919.84
4658.26
4340.18
4055.42
3828.11
3653.16
3519.86
3417.6
3337.67
3273.59
3221.14
3177.69
3141.57
3111.56
3086.24
3064.59
3045.94
3029.78
3015.69
3003.05
2991.57
2981.22
2971.95
2963.67
2956.28
2949.65
2943.71
2938.38
2933.59
2929.29
2925.34
2921.67
2918.29
2915.21
2912.42
2909.95
2907.77
2905.83
5661.37
4515.1
4724.92
4968.16
4920.88
4659.24
4340.94
4055.97
3828.51
3653.47
3520.11
3417.81
3337.84
3273.74
3221.29
3177.82
3141.69
3111.67
3086.33
3064.67
3046.03
3029.88
3015.79
3003.14
2991.66
2981.3
2972.03
2963.75
2956.35
2949.72
2943.78
2938.44
2933.64
2929.31
2925.34
2921.68
2918.3
2915.23
2912.44
2909.96
2907.76
2905.82
5662.4
4515.66
4725.2
4968.69
4921.63
4660.01
4341.58
4056.45
3828.84
3653.69
3520.26
3417.93
3337.95
3273.84
3221.37
3177.91
3141.78
3111.76
3086.44
3064.78
3046.13
3029.97
3015.86
3003.21
2991.72
2981.36
2972.09
2963.8
2956.4
2949.76
2943.82
2938.48
2933.67
2929.34
2925.38
2921.71
2918.34
2915.26
2912.48
2910
2907.8
2905.86
5661.43
4515.02
4724.77
4968.04
4920.84
4659.3
4341.08
4056.11
3828.63
3653.57
3520.2
3417.89
3337.91
3273.81
3221.36
3177.89
3141.76
3111.74
3086.41
3064.75
3046.1
3029.94
3015.83
3003.18
2991.7
2981.33
2972.06
2963.77
2956.36
2949.72
2943.76
2938.43
2933.65
2929.35
2925.4
2921.72
2918.33
2915.25
2912.48
2910
2907.81
2905.87
5662.43
4515.88
4725.32
4968.53
4921.29
4659.63
4341.28
4056.24
3828.7
3653.6
3520.2
3417.89
3337.93
3273.83
3221.37
3177.91
3141.78
3111.77
3086.44
3064.79
3046.14
3029.98
3015.87
3003.21
2991.72
2981.36
2972.09
2963.8
2956.4
2949.76
2943.81
2938.46
2933.66
2929.34
2925.37
2921.71
2918.33
2915.26
2912.48
2910
2907.8
2905.85
5661.44
4515.01
4724.72
4967.99
4920.81
4659.3
4341.09
4056.13
3828.64
3653.58
3520.19
3417.87
3337.89
3273.78
3221.32
3177.86
3141.74
3111.73
3086.41
3064.75
3046.11
3029.94
3015.83
3003.18
2991.68
2981.31
2972.04
2963.75
2956.35
2949.71
2943.75
2938.41
2933.61
2929.3
2925.34
2921.67
2918.28
2915.19
2912.41
2909.94
2907.74
2905.8
5662.43
4515.89
4725.33
4968.53
4921.27
4659.61
4341.26
4056.22
3828.69
3653.57
3520.17
3417.86
3337.89
3273.77
3221.29
3177.83
3141.7
3111.69
3086.37
3064.72
3046.07
3029.92
3015.81
3003.16
2991.67
2981.31
2972.04
2963.75
2956.33
2949.68
2943.73
2938.4
2933.6
2929.26
2925.29
2921.62
2918.24
2915.16
2912.38
2909.89
2907.69
2905.76
5661.44
4515.01
4724.72
4967.99
4920.81
4659.3
4341.09
4056.12
3828.64
3653.58
3520.19
3417.87
3337.89
3273.78
3221.32
3177.86
3141.73
3111.72
3086.4
3064.75
3046.1
3029.93
3015.82
3003.17
2991.67
2981.3
2972.03
2963.74
2956.33
2949.69
2943.73
2938.39
2933.58
2929.26
2925.29
2921.63
2918.26
2915.18
2912.39
2909.89
2907.69
2905.76
5662.43
4515.89
4725.33
4968.54
4921.29
4659.63
4341.27
4056.22
3828.69
3653.58
3520.18
3417.86
3337.89
3273.76
3221.29
3177.82
3141.7
3111.69
3086.36
3064.71
3046.07
3029.92
3015.81
3003.16
2991.67
2981.3
2972.03
2963.74
2956.33
2949.68
2943.73
2938.4
2933.59
2929.26
2925.28
2921.61
2918.24
2915.16
2912.37
2909.88
2907.68
2905.75
5661.42
4514.97
4724.69
4968
4920.84
4659.34
4341.11
4056.13
3828.64
3653.57
3520.19
3417.86
3337.88
3273.77
3221.31
3177.85
3141.73
3111.71
3086.39
3064.74
3046.09
3029.92
3015.81
3003.15
2991.66
2981.29
2972.02
2963.73
2956.32
2949.68
2943.73
2938.38
2933.58
2929.25
2925.3
2921.63
2918.26
2915.18
2912.38
2909.88
2907.67
2905.73
5662.47
4516.09
4725.45
4968.42
4921
4659.3
4340.99
4056.01
3828.53
3653.46
3520.08
3417.78
3337.82
3273.71
3221.24
3177.77
3141.65
3111.64
3086.32
3064.67
3046.03
3029.87
3015.77
3003.12
2991.63
2981.26
2971.99
2963.7
2956.29
2949.64
2943.69
2938.36
2933.56
2929.23
2925.25
2921.59
2918.22
2915.15
2912.36
2909.86
2907.65
2905.72
5661.42
4514.97
4724.69
4968
4920.85
4659.34
4341.11
4056.13
3828.63
3653.57
3520.18
3417.86
3337.88
3273.77
3221.3
3177.84
3141.72
3111.71
3086.39
3064.74
3046.09
3029.92
3015.81
3003.15
2991.66
2981.29
2972.01
2963.73
2956.33
2949.69
2943.72
2938.37
2933.57
2929.25
2925.29
2921.62
2918.23
2915.15
2912.37
2909.89
2907.69
2905.75
5662.43
4515.88
4725.33
4968.55
4921.3
4659.65
4341.29
4056.24
3828.7
3653.58
3520.18
3417.87
3337.89
3273.77
3221.3
3177.83
3141.7
3111.69
3086.37
3064.72
3046.08
3029.92
3015.81
3003.17
2991.68
2981.31
2972.04
2963.75
2956.35
2949.7
2943.73
2938.39
2933.59
2929.28
2925.33
2921.66
2918.28
2915.19
2912.4
2909.93
2907.74
2905.8
5661.43
4515.01
4724.76
4968.02
4920.83
4659.3
4341.06
4056.1
3828.61
3653.55
3520.18
3417.87
3337.9
3273.8
3221.33
3177.86
3141.72
3111.71
3086.39
3064.73
3046.07
3029.9
3015.8
3003.15
2991.67
2981.3
2972.03
2963.74
2956.34
2949.69
2943.73
2938.39
2933.61
2929.3
2925.34
2921.67
2918.29
2915.22
2912.45
2909.97
2907.76
2905.81
5662.41
4515.74
4725.27
4968.67
4921.54
4659.9
4341.48
4056.37
3828.78
3653.63
3520.21
3417.88
3337.9
3273.77
3221.29
3177.82
3141.7
3111.69
3086.37
3064.72
3046.07
3029.91
3015.81
3003.16
2991.68
2981.32
2972.04
2963.75
2956.34
2949.7
2943.74
2938.39
2933.6
2929.29
2925.33
2921.66
2918.28
2915.2
2912.42
2909.94
2907.74
2905.8
5661.37
4515.12
4724.94
4968.14
4920.83
4659.19
4340.91
4055.95
3828.49
3653.46
3520.11
3417.81
3337.85
3273.75
3221.29
3177.82
3141.69
3111.67
3086.33
3064.66
3046.02
3029.87
3015.77
3003.12
2991.64
2981.27
2972
2963.71
2956.3
2949.66
2943.7
2938.36
2933.56
2929.23
2925.27
2921.61
2918.24
2915.17
2912.4
2909.91
2907.71
2905.77
5661.6
4515.68
4724.96
4967.46
4919.81
4658.21
4340.13
4055.37
3828.06
3653.12
3519.82
3417.57
3337.65
3273.57
3221.12
3177.66
3141.54
3111.53
3086.21
3064.55
3045.9
3029.74
3015.64
3003
2991.52
2981.16
2971.89
2963.6
2956.2
2949.57
2943.61
2938.27
2933.48
2929.16
2925.21
2921.55
2918.18
2915.1
2912.33
2909.87
2907.68
2905.75
5662.43
4515.88
4725.38
4968.64
4921.37
4659.65
4341.24
4056.16
3828.61
3653.49
3520.08
3417.77
3337.8
3273.69
3221.21
3177.75
3141.63
3111.62
3086.31
3064.65
3046.01
3029.86
3015.75
3003.1
2991.62
2981.26
2971.98
2963.69
2956.28
2949.64
2943.69
2938.35
2933.55
2929.22
2925.25
2921.59
2918.22
2915.15
2912.37
2909.88
2907.69
2905.75
5661.42
4514.94
4724.69
4968.05
4920.93
4659.42
4341.17
4056.17
3828.66
3653.58
3520.19
3417.86
3337.87
3273.76
3221.3
3177.84
3141.72
3111.71
3086.39
3064.73
3046.08
3029.92
3015.81
3003.15
2991.66
2981.28
2972.01
2963.73
2956.33
2949.69
2943.73
2938.38
2933.58
2929.25
2925.29
2921.61
2918.23
2915.15
2912.36
2909.88
2907.68
2905.75
5662.43
4515.88
4725.34
4968.56
4921.31
4659.64
4341.28
4056.23
3828.69
3653.58
3520.17
3417.85
3337.88
3273.76
3221.29
3177.82
3141.7
3111.68
3086.36
3064.71
3046.07
3029.92
3015.81
3003.16
2991.67
2981.3
2972.03
2963.74
2956.33
2949.69
2943.73
2938.38
2933.58
2929.25
2925.28
2921.61
2918.24
2915.16
2912.37
2909.89
2907.69
2905.75
5661.43
4515
4724.72
4968
4920.82
4659.32
4341.1
4056.13
3828.64
3653.57
3520.18
3417.86
3337.88
3273.77
3221.31
3177.85
3141.73
3111.72
3086.4
3064.75
3046.1
3029.93
3015.82
3003.16
2991.67
2981.3
2972.02
2963.74
2956.34
2949.7
2943.74
2938.39
2933.59
2929.28
2925.32
2921.65
2918.26
2915.17
2912.37
2909.89
2907.7
2905.76
5662.47
4515.91
4725.34
4968.54
4921.27
4659.61
4341.26
4056.22
3828.69
3653.58
3520.17
3417.86
3337.88
3273.77
3221.29
3177.83
3141.71
3111.7
3086.37
3064.72
3046.08
3029.92
3015.82
3003.17
2991.68
2981.32
2972.04
2963.76
2956.35
2949.7
2943.74
2938.4
2933.61
2929.3
2925.35
2921.68
2918.29
2915.2
2912.42
2909.93
2907.73
2905.79
5453.9
2957.02
2398.46
2560.89
2806.7
2912.53
2884.27
2794.89
2684.46
2570.93
2464.3
2369.32
2286.97
2216.52
2156.57
2105.29
2060.97
2022.58
1989.35
1960.58
1935.5
1913.41
1893.67
1876.06
1860.38
1846.4
1833.91
1822.66
1812.44
1803.11
1794.58
1786.78
1779.62
1773.01
1766.82
1761.04
1755.68
1750.74
1746.19
1742
1738.14
1734.57
5453.35
2956.49
2398.18
2560.9
2806.93
2912.8
2884.45
2795.01
2684.54
2570.96
2464.31
2369.31
2286.96
2216.51
2156.56
2105.28
2060.98
2022.59
1989.37
1960.59
1935.52
1913.43
1893.69
1876.08
1860.4
1846.42
1833.93
1822.69
1812.47
1803.14
1794.61
1786.8
1779.63
1773
1766.82
1761.05
1755.69
1750.76
1746.21
1742.01
1738.15
1734.58
5453.82
2957.06
2398.7
2561.11
2806.8
2912.53
2884.21
2794.82
2684.41
2570.87
2464.22
2369.22
2286.86
2216.41
2156.48
2105.21
2060.92
2022.54
1989.33
1960.55
1935.48
1913.4
1893.66
1876.05
1860.36
1846.38
1833.89
1822.65
1812.43
1803.1
1794.57
1786.76
1779.59
1772.97
1766.79
1761.02
1755.67
1750.73
1746.18
1741.99
1738.13
1734.57
5453.92
2957.25
2398.78
2560.98
2806.55
2912.14
2883.81
2794.45
2684.07
2570.6
2464.01
2369.06
2286.74
2216.32
2156.39
2105.13
2060.83
2022.44
1989.23
1960.46
1935.39
1913.31
1893.57
1875.96
1860.28
1846.31
1833.82
1822.58
1812.37
1803.04
1794.51
1786.71
1779.54
1772.93
1766.76
1760.98
1755.63
1750.69
1746.14
1741.95
1738.09
1734.52
5453.3
2956.46
2398.32
2561.1
2807.08
2912.86
2884.44
2794.95
2684.43
2570.82
2464.13
2369.13
2286.77
2216.31
2156.37
2105.1
2060.81
2022.44
1989.24
1960.49
1935.43
1913.35
1893.62
1876.01
1860.33
1846.35
1833.86
1822.61
1812.39
1803.07
1794.54
1786.73
1779.56
1772.95
1766.78
1761.01
1755.66
1750.72
1746.18
1741.98
1738.11
1734.53
5453.91
2957.23
2398.76
2560.98
2806.55
2912.16
2883.84
2794.47
2684.09
2570.61
2464.02
2369.06
2286.75
2216.33
2156.4
2105.13
2060.83
2022.44
1989.23
1960.46
1935.39
1913.31
1893.57
1875.96
1860.28
1846.31
1833.82
1822.57
1812.36
1803.03
1794.5
1786.7
1779.53
1772.92
1766.74
1760.97
1755.63
1750.69
1746.14
1741.94
1738.07
1734.51
5453.8
2957.01
2398.66
2561.1
2806.83
2912.58
2884.27
2794.86
2684.44
2570.89
2464.22
2369.21
2286.85
2216.41
2156.47
2105.2
2060.9
2022.53
1989.31
1960.54
1935.47
1913.39
1893.65
1876.04
1860.35
1846.38
1833.88
1822.64
1812.42
1803.09
1794.56
1786.75
1779.58
1772.96
1766.78
1761.01
1755.66
1750.72
1746.17
1741.99
1738.12
1734.55
5453.32
2956.49
2398.26
2560.99
2806.99
2912.82
2884.43
2794.97
2684.49
2570.9
2464.24
2369.24
2286.9
2216.45
2156.51
2105.23
2060.92
2022.54
1989.32
1960.55
1935.47
1913.39
1893.65
1876.04
1860.36
1846.39
1833.9
1822.65
1812.43
1803.11
1794.58
1786.77
1779.6
1772.98
1766.8
1761.03
1755.67
1750.74
1746.19
1741.99
1738.13
1734.56
5453.93
2957.24
2398.77
2560.99
2806.55
2912.14
2883.81
2794.45
2684.08
2570.62
2464.04
2369.09
2286.78
2216.36
2156.43
2105.16
2060.86
2022.47
1989.25
1960.48
1935.4
1913.33
1893.59
1875.99
1860.31
1846.34
1833.85
1822.61
1812.4
1803.08
1794.55
1786.75
1779.59
1772.98
1766.8
1761.03
1755.67
1750.72
1746.17
1741.99
1738.13
1734.56
5453.83
2957.05
2398.66
2561.06
2806.77
2912.52
2884.23
2794.83
2684.42
2570.89
2464.25
2369.25
2286.9
2216.46
2156.52
2105.23
2060.92
2022.53
1989.31
1960.53
1935.46
1913.39
1893.65
1876.05
1860.37
1846.4
1833.91
1822.67
1812.45
1803.13
1794.6
1786.79
1779.62
1773
1766.81
1761.03
1755.68
1750.74
1746.18
1741.99
1738.12
1734.55
5453.34
2956.46
2398.14
2560.88
2806.93
2912.83
2884.49
2795.05
2684.57
2570.99
2464.33
2369.33
2286.98
2216.52
2156.57
2105.29
2060.98
2022.59
1989.37
1960.6
1935.52
1913.44
1893.69
1876.08
1860.4
1846.43
1833.94
1822.69
1812.47
1803.14
1794.61
1786.81
1779.64
1773.01
1766.83
1761.05
1755.7
1750.76
1746.21
1742.01
1738.15
1734.58
5453.9
2957.02
2398.47
2560.89
2806.7
2912.54
2884.28
2794.91
2684.47
2570.94
2464.32
2369.33
2286.99
2216.54
2156.59
2105.31
2061
2022.6
1989.37
1960.59
1935.51
1913.43
1893.68
1876.07
1860.38
1846.41
1833.91
1822.67
1812.45
1803.12
1794.59
1786.79
1779.63
1773.02
1766.84
1761.05
1755.69
1750.75
1746.2
1742.02
1738.15
1734.59
5453.37
2956.61
2398.35
2560.99
2806.89
2912.68
2884.3
2794.87
2684.42
2570.87
2464.24
2369.26
2286.93
2216.49
2156.55
2105.28
2060.97
2022.58
1989.37
1960.59
1935.52
1913.44
1893.69
1876.08
1860.4
1846.43
1833.94
1822.69
1812.47
1803.14
1794.61
1786.8
1779.63
1773.01
1766.82
1761.05
1755.69
1750.75
1746.2
1742.01
1738.14
1734.57
5453.9
2957.02
2398.43
2560.84
2806.66
2912.53
2884.28
2794.91
2684.47
2570.91
2464.26
2369.27
2286.91
2216.45
2156.51
2105.24
2060.95
2022.56
1989.35
1960.58
1935.5
1913.42
1893.67
1876.06
1860.38
1846.4
1833.91
1822.67
1812.45
1803.12
1794.59
1786.78
1779.61
1773
1766.82
1761.04
1755.67
1750.73
1746.18
1742
1738.13
1734.57
5453.37
2956.61
2398.36
2561
2806.89
2912.67
2884.29
2794.86
2684.39
2570.81
2464.16
2369.17
2286.82
2216.37
2156.42
2105.15
2060.86
2022.49
1989.29
1960.53
1935.46
1913.39
1893.65
1876.04
1860.36
1846.39
1833.9
1822.65
1812.43
1803.1
1794.57
1786.77
1779.6
1772.97
1766.78
1761.01
1755.65
1750.72
1746.16
1741.97
1738.11
1734.55
5453.9
2957.02
2398.43
2560.84
2806.66
2912.53
2884.28
2794.91
2684.46
2570.91
2464.25
2369.26
2286.91
2216.45
2156.51
2105.24
2060.94
2022.56
1989.34
1960.57
1935.49
1913.41
1893.67
1876.05
1860.37
1846.39
1833.9
1822.65
1812.44
1803.11
1794.58
1786.77
1779.59
1772.97
1766.79
1761.02
1755.67
1750.73
1746.17
1741.97
1738.11
1734.55
5453.37
2956.61
2398.35
2561
2806.9
2912.68
2884.3
2794.87
2684.39
2570.82
2464.16
2369.17
2286.83
2216.37
2156.42
2105.15
2060.86
2022.49
1989.29
1960.53
1935.46
1913.39
1893.65
1876.04
1860.36
1846.39
1833.9
1822.65
1812.43
1803.1
1794.57
1786.77
1779.6
1772.97
1766.78
1761
1755.65
1750.71
1746.16
1741.96
1738.1
1734.54
5453.9
2957
2398.41
2560.84
2806.67
2912.54
2884.3
2794.92
2684.46
2570.9
2464.25
2369.26
2286.9
2216.44
2156.5
2105.23
2060.93
2022.55
1989.34
1960.56
1935.49
1913.4
1893.66
1876.05
1860.36
1846.39
1833.9
1822.65
1812.43
1803.11
1794.58
1786.77
1779.6
1772.98
1766.79
1761.02
1755.66
1750.72
1746.16
1741.95
1738.09
1734.53
5453.39
2956.7
2398.48
2561.05
2806.85
2912.56
2884.16
2794.73
2684.27
2570.71
2464.07
2369.09
2286.76
2216.31
2156.37
2105.1
2060.82
2022.45
1989.25
1960.49
1935.43
1913.36
1893.62
1876.01
1860.33
1846.36
1833.87
1822.63
1812.4
1803.07
1794.55
1786.75
1779.58
1772.95
1766.76
1760.99
1755.64
1750.7
1746.14
1741.94
1738.08
1734.52
5453.9
2957
2398.41
2560.84
2806.67
2912.54
2884.29
2794.92
2684.46
2570.9
2464.25
2369.25
2286.9
2216.44
2156.5
2105.23
2060.93
2022.55
1989.33
1960.56
1935.49
1913.4
1893.66
1876.05
1860.36
1846.39
1833.89
1822.65
1812.43
1803.1
1794.57
1786.75
1779.58
1772.97
1766.78
1761.01
1755.65
1750.71
1746.16
1741.97
1738.11
1734.55
5453.37
2956.6
2398.34
2560.98
2806.89
2912.69
2884.31
2794.88
2684.41
2570.83
2464.17
2369.18
2286.84
2216.38
2156.43
2105.16
2060.87
2022.5
1989.3
1960.54
1935.47
1913.4
1893.66
1876.05
1860.37
1846.39
1833.9
1822.66
1812.44
1803.11
1794.57
1786.76
1779.6
1772.99
1766.81
1761.04
1755.67
1750.72
1746.17
1741.99
1738.13
1734.56
5453.89
2957.02
2398.46
2560.89
2806.69
2912.54
2884.28
2794.9
2684.47
2570.93
2464.29
2369.31
2286.96
2216.51
2156.57
2105.28
2060.96
2022.56
1989.34
1960.57
1935.49
1913.4
1893.66
1876.05
1860.37
1846.39
1833.9
1822.65
1812.44
1803.1
1794.57
1786.77
1779.61
1773
1766.82
1761.03
1755.67
1750.73
1746.19
1742
1738.13
1734.56
5453.35
2956.5
2398.2
2560.91
2806.92
2912.79
2884.44
2795
2684.51
2570.91
2464.23
2369.23
2286.87
2216.41
2156.46
2105.18
2060.88
2022.51
1989.3
1960.54
1935.48
1913.4
1893.66
1876.06
1860.37
1846.4
1833.91
1822.66
1812.44
1803.11
1794.58
1786.77
1779.61
1773
1766.81
1761.03
1755.67
1750.73
1746.18
1741.99
1738.13
1734.56
5453.83
2957.07
2398.69
2561.08
2806.77
2912.51
2884.21
2794.81
2684.4
2570.88
2464.24
2369.24
2286.9
2216.46
2156.52
2105.24
2060.92
2022.53
1989.31
1960.53
1935.46
1913.38
1893.65
1876.04
1860.35
1846.38
1833.89
1822.64
1812.42
1803.09
1794.56
1786.76
1779.59
1772.97
1766.78
1761.01
1755.66
1750.73
1746.18
1741.98
1738.11
1734.54
5453.94
2957.28
2398.8
2560.99
2806.53
2912.13
2883.8
2794.43
2684.06
2570.59
2464.01
2369.06
2286.76
2216.33
2156.41
2105.14
2060.83
2022.44
1989.23
1960.45
1935.38
1913.3
1893.56
1875.95
1860.27
1846.3
1833.81
1822.57
1812.35
1803.02
1794.49
1786.69
1779.53
1772.92
1766.74
1760.97
1755.61
1750.68
1746.13
1741.95
1738.09
1734.52
5453.34
2956.56
2398.36
2561.05
2806.96
2912.72
2884.32
2794.86
2684.38
2570.79
2464.12
2369.13
2286.79
2216.33
2156.38
2105.11
2060.83
2022.45
1989.25
1960.49
1935.43
1913.36
1893.62
1876.01
1860.33
1846.36
1833.87
1822.62
1812.4
1803.07
1794.55
1786.74
1779.58
1772.95
1766.76
1760.99
1755.64
1750.71
1746.15
1741.96
1738.1
1734.53
5453.88
2956.97
2398.38
2560.82
2806.69
2912.58
2884.34
2794.96
2684.5
2570.93
2464.28
2369.28
2286.91
2216.45
2156.5
2105.23
2060.94
2022.55
1989.34
1960.56
1935.49
1913.41
1893.66
1876.05
1860.36
1846.39
1833.9
1822.66
1812.44
1803.11
1794.57
1786.76
1779.59
1772.97
1766.78
1761
1755.64
1750.7
1746.15
1741.96
1738.1
1734.54
5453.37
2956.6
2398.35
2561.01
2806.91
2912.69
2884.31
2794.87
2684.4
2570.82
2464.16
2369.17
2286.82
2216.36
2156.42
2105.15
2060.86
2022.49
1989.28
1960.52
1935.46
1913.39
1893.65
1876.04
1860.36
1846.39
1833.9
1822.65
1812.43
1803.1
1794.57
1786.76
1779.59
1772.97
1766.78
1761
1755.65
1750.71
1746.16
1741.97
1738.1
1734.54
5453.9
2957.02
2398.43
2560.84
2806.67
2912.54
2884.29
2794.92
2684.47
2570.91
2464.26
2369.26
2286.9
2216.44
2156.5
2105.23
2060.94
2022.55
1989.34
1960.57
1935.49
1913.41
1893.67
1876.05
1860.37
1846.4
1833.9