/*--------------------------------*- C++ -*----------------------------------*\
  =========                 |
  \\      /  F ield         | OpenFOAM: The Open Source CFD Toolbox
   \\    /   O peration     | Website:  https://openfoam.org
    \\  /    A nd           | Version:  9
     \\/     M anipulation  |
\*---------------------------------------------------------------------------*/
FoamFile
{
    format      ascii;
    class       volScalarField;
    location    "1200";
    object      p;
}
// * * * * * * * * * * * * * * * * * * * * * * * * * * * * * * * * * * * * * //

dimensions      [0 2 -2 0 0 0 0];

internalField   nonuniform List<scalar> 
82350
(
2.68276
1.71212
1.44264
1.42012
1.3971
1.37408
1.35237
1.32268
1.28493
1.24455
1.20592
1.16958
1.13502
1.1036
1.07547
1.04948
1.02498
1.00194
0.98049
0.960204
0.941004
0.923019
0.906519
0.890811
0.8752
0.860038
0.845686
0.832272
0.819305
0.806557
0.794183
0.782327
0.771053
0.760098
0.749248
0.738623
0.728247
0.718316
0.708583
0.698686
0.6889
0.679371
2.68794
1.70888
1.44169
1.41983
1.39696
1.37399
1.35236
1.32264
1.28483
1.24462
1.20594
1.16957
1.13498
1.10358
1.07548
1.04951
1.02498
1.00193
0.980464
0.960187
0.941008
0.923032
0.906514
0.890806
0.875206
0.86005
0.845688
0.832248
0.819264
0.806524
0.794173
0.782338
0.771067
0.760105
0.749263
0.738648
0.72827
0.718312
0.708536
0.698632
0.688879
0.679395
2.68167
1.71423
1.44229
1.41972
1.39705
1.37399
1.35236
1.32266
1.2849
1.24454
1.20592
1.16958
1.13505
1.10358
1.07546
1.04949
1.02497
1.00193
0.980472
0.960184
0.941008
0.923034
0.906503
0.890802
0.875206
0.860056
0.845701
0.83226
0.819278
0.806536
0.794173
0.78234
0.771074
0.760122
0.749296
0.738677
0.728276
0.71828
0.708485
0.698601
0.688872
0.679395
2.67692
1.7166
1.44349
1.4201
1.39734
1.37403
1.35246
1.32275
1.28491
1.24465
1.20599
1.16957
1.13502
1.10358
1.07549
1.04954
1.02497
1.00193
0.980476
0.960187
0.941015
0.923046
0.906511
0.890813
0.875211
0.860051
0.845689
0.83224
0.81926
0.806526
0.794171
0.782342
0.771075
0.760123
0.749286
0.738658
0.728259
0.718263
0.708478
0.698617
0.688912
0.679439
2.68583
1.71181
1.44162
1.41944
1.39692
1.37385
1.35234
1.32258
1.28479
1.24465
1.20595
1.16954
1.13499
1.10356
1.07548
1.04953
1.02496
1.00192
0.980465
0.960177
0.941014
0.923041
0.906493
0.890789
0.875186
0.86004
0.845694
0.832248
0.819267
0.806528
0.794169
0.782345
0.771092
0.760151
0.749317
0.738686
0.728273
0.718249
0.708426
0.69855
0.688845
0.67938
2.67672
1.71677
1.44354
1.42007
1.39735
1.37402
1.35246
1.32274
1.28492
1.24467
1.206
1.16957
1.13502
1.10357
1.07549
1.04954
1.02498
1.00194
0.980481
0.960185
0.941015
0.923051
0.906512
0.890812
0.875205
0.860044
0.845684
0.83223
0.819256
0.806526
0.794168
0.782345
0.771086
0.760134
0.749299
0.73868
0.72828
0.718264
0.708453
0.698585
0.68889
0.679443
2.68102
1.71483
1.44243
1.41968
1.39707
1.37396
1.35233
1.32264
1.28489
1.24458
1.20595
1.16958
1.13503
1.10355
1.07546
1.04951
1.02498
1.00194
0.980467
0.960175
0.94101
0.923044
0.906503
0.890796
0.875192
0.860042
0.845691
0.832246
0.819263
0.80652
0.79416
0.782337
0.771081
0.76013
0.749304
0.738701
0.728305
0.718291
0.708476
0.698583
0.688852
0.679376
2.6859
1.71073
1.44186
1.41969
1.39705
1.37397
1.35235
1.32262
1.28484
1.24466
1.20598
1.16956
1.13496
1.10356
1.07548
1.04954
1.025
1.00194
0.980467
0.960184
0.941014
0.923043
0.906513
0.890797
0.875194
0.860042
0.845683
0.832234
0.819244
0.806506
0.794156
0.782332
0.771074
0.760119
0.74929
0.738696
0.728317
0.718314
0.708503
0.69862
0.688901
0.679405
2.6776
1.71673
1.44334
1.4199
1.39724
1.37399
1.35238
1.32269
1.28491
1.2446
1.20599
1.16959
1.13498
1.10359
1.07548
1.04952
1.025
1.00195
0.98047
0.960189
0.941009
0.923039
0.906523
0.890793
0.875184
0.860035
0.845684
0.832253
0.819268
0.806522
0.794161
0.78232
0.771059
0.760114
0.749286
0.738686
0.728306
0.718316
0.708529
0.698656
0.688935
0.679403
2.68183
1.71418
1.44204
1.41966
1.39708
1.37403
1.35233
1.32266
1.28494
1.24455
1.20597
1.16962
1.13501
1.10359
1.07545
1.04948
1.02502
1.00198
0.980493
0.960209
0.941006
0.923018
0.906509
0.890784
0.875185
0.860038
0.845679
0.832242
0.819253
0.806511
0.794162
0.782326
0.771061
0.760105
0.749274
0.73868
0.72832
0.718352
0.708558
0.698662
0.688927
0.679395
2.68837
1.70893
1.44153
1.41977
1.39692
1.37395
1.3523
1.32261
1.28483
1.2446
1.20598
1.1696
1.13495
1.10358
1.07548
1.0495
1.025
1.00193
0.980452
0.960187
0.941003
0.923028
0.906528
0.8908
0.875191
0.860033
0.84567
0.832246
0.819267
0.806528
0.79417
0.782315
0.771041
0.760097
0.749274
0.738678
0.728315
0.718354
0.70858
0.698686
0.688926
0.679377
2.68292
1.71205
1.44255
1.4201
1.39708
1.37406
1.35235
1.32268
1.28495
1.24455
1.20597
1.16962
1.13501
1.1036
1.07547
1.04948
1.025
1.00194
0.980475
0.960202
0.941004
0.923024
0.906529
0.890813
0.875202
0.860033
0.845666
0.832253
0.819295
0.806556
0.794175
0.782308
0.771031
0.760078
0.749232
0.738628
0.728289
0.718382
0.708665
0.698774
0.688969
0.679368
2.6888
1.70864
1.44151
1.41978
1.39685
1.37394
1.3523
1.3226
1.28482
1.24461
1.20599
1.16961
1.13496
1.10359
1.07548
1.0495
1.02498
1.00191
0.980444
0.960183
0.941009
0.923039
0.906543
0.890819
0.875198
0.86002
0.845651
0.832241
0.819285
0.806555
0.794183
0.782305
0.771013
0.760073
0.749269
0.7387
0.728356
0.718398
0.708608
0.698686
0.688897
0.67934
2.68297
1.71188
1.44255
1.42019
1.39711
1.37406
1.35234
1.32266
1.28495
1.24459
1.20599
1.16964
1.13504
1.1036
1.07546
1.04947
1.02496
1.00192
0.980461
0.960194
0.941017
0.92305
0.906559
0.890852
0.875211
0.860002
0.845625
0.832241
0.819329
0.806612
0.79421
0.782302
0.770992
0.760035
0.749229
0.738673
0.72835
0.718409
0.708629
0.698716
0.688925
0.679351
2.68877
1.7086
1.44155
1.41981
1.39685
1.37393
1.35229
1.32258
1.28482
1.24466
1.206
1.16962
1.135
1.10358
1.07548
1.04949
1.02495
1.00191
0.980445
0.960178
0.941019
0.923052
0.906545
0.890835
0.875189
0.859982
0.845622
0.832247
0.819329
0.806597
0.794187
0.782287
0.770976
0.760009
0.749229
0.738737
0.72846
0.718486
0.708602
0.698621
0.688853
0.679351
2.68292
1.71188
1.4426
1.4202
1.3971
1.37405
1.35233
1.32264
1.28494
1.24461
1.20599
1.16964
1.13505
1.10359
1.07545
1.04945
1.02494
1.00191
0.980463
0.960189
0.941024
0.923063
0.906568
0.890865
0.875209
0.859983
0.845608
0.832242
0.819357
0.806641
0.794217
0.782297
0.770982
0.760018
0.749214
0.738686
0.728399
0.718444
0.70858
0.698614
0.688861
0.679383
2.68864
1.70858
1.44159
1.41984
1.39688
1.37395
1.35227
1.32256
1.28482
1.24466
1.20602
1.16963
1.13499
1.10359
1.07546
1.04947
1.02495
1.0019
0.980442
0.960185
0.941024
0.923056
0.906556
0.890835
0.875183
0.859973
0.845608
0.832249
0.819345
0.806611
0.794197
0.782285
0.770964
0.759998
0.74922
0.738748
0.728496
0.718521
0.708604
0.698588
0.688814
0.679321
2.68281
1.71206
1.44264
1.42014
1.39709
1.37405
1.35229
1.32261
1.28494
1.2446
1.20602
1.16965
1.13503
1.1036
1.07544
1.04943
1.02494
1.00191
0.980456
0.960197
0.941028
0.923064
0.906583
0.890863
0.875207
0.859982
0.845597
0.832241
0.819363
0.806645
0.794229
0.782304
0.770985
0.760021
0.749213
0.738692
0.728408
0.718446
0.708577
0.698595
0.688831
0.679363
2.68763
1.70897
1.44194
1.41995
1.39696
1.37398
1.35227
1.32254
1.28484
1.24465
1.20605
1.16964
1.13496
1.10359
1.07546
1.04946
1.02496
1.00191
0.980441
0.960194
0.941029
0.923054
0.906569
0.890832
0.875179
0.859974
0.845603
0.832249
0.819347
0.80661
0.794206
0.782297
0.770976
0.760006
0.74921
0.738726
0.728472
0.718511
0.708616
0.6986
0.688823
0.679333
2.68278
1.71208
1.44267
1.42017
1.39711
1.37406
1.35226
1.32257
1.28494
1.24459
1.20603
1.16966
1.135
1.10359
1.07544
1.04943
1.02496
1.00192
0.980457
0.960207
0.941035
0.923062
0.906587
0.890851
0.875197
0.859985
0.845599
0.832242
0.819356
0.806635
0.794231
0.782313
0.771
0.760043
0.749229
0.73868
0.728364
0.718409
0.708594
0.698647
0.688872
0.679362
2.68855
1.70859
1.4416
1.41985
1.39693
1.37397
1.35223
1.32251
1.28483
1.24465
1.20605
1.16965
1.13493
1.10358
1.07546
1.04946
1.02497
1.0019
0.980436
0.960203
0.941036
0.923055
0.906571
0.89082
0.87517
0.859977
0.84561
0.832251
0.819337
0.806601
0.794213
0.782318
0.771012
0.76005
0.749231
0.738666
0.728337
0.718396
0.708629
0.698712
0.688919
0.679359
2.68272
1.71212
1.44272
1.42019
1.39713
1.37406
1.35225
1.32256
1.28494
1.24458
1.20602
1.16965
1.13497
1.10358
1.07543
1.04944
1.02498
1.00194
0.980471
0.960218
0.941032
0.923048
0.906567
0.890816
0.875176
0.860005
0.845643
0.832258
0.819323
0.806593
0.794224
0.782336
0.771027
0.760062
0.749229
0.738641
0.728292
0.718359
0.708623
0.698724
0.688932
0.679358
2.68798
1.70887
1.44171
1.4199
1.397
1.37399
1.35224
1.32251
1.28484
1.24464
1.20605
1.16964
1.13492
1.10358
1.07545
1.04946
1.02498
1.00191
0.980445
0.960209
0.941038
0.923051
0.906559
0.890801
0.875173
0.86001
0.845635
0.832228
0.819291
0.806592
0.794249
0.782356
0.771032
0.760061
0.749223
0.738632
0.728281
0.718355
0.708628
0.698735
0.688949
0.679358
2.68182
1.71408
1.44222
1.41981
1.39712
1.37402
1.35227
1.32255
1.28491
1.24455
1.20601
1.16964
1.13497
1.10358
1.07542
1.04944
1.025
1.00196
0.980485
0.960226
0.941037
0.923042
0.906546
0.890789
0.875169
0.860021
0.845661
0.832249
0.819291
0.80657
0.79423
0.782358
0.77105
0.760078
0.749242
0.738658
0.728297
0.718341
0.708571
0.698662
0.68891
0.679376
2.67772
1.71624
1.44326
1.42008
1.39734
1.37403
1.35238
1.32264
1.28492
1.2446
1.20604
1.16963
1.13496
1.1036
1.07546
1.04946
1.02498
1.00193
0.980465
0.960215
0.94104
0.923058
0.906564
0.890803
0.875174
0.860022
0.845666
0.832258
0.819298
0.806572
0.794226
0.782349
0.771042
0.760074
0.749238
0.738649
0.728287
0.718336
0.708583
0.698689
0.688936
0.679382
2.68697
1.71033
1.44168
1.41969
1.39696
1.37394
1.35229
1.32252
1.2848
1.2446
1.206
1.1696
1.13493
1.10359
1.07547
1.04947
1.02497
1.00192
0.980455
0.960208
0.941032
0.923042
0.906548
0.8908
0.875177
0.860018
0.84565
0.832238
0.81929
0.806583
0.794242
0.782359
0.771041
0.760069
0.749234
0.738652
0.728303
0.718342
0.708555
0.698638
0.68889
0.679382
2.68236
1.71228
1.44269
1.42018
1.39719
1.3741
1.35234
1.32263
1.28494
1.24457
1.20598
1.16963
1.135
1.1036
1.07546
1.04945
1.02497
1.00193
0.980471
0.960214
0.941033
0.923053
0.906569
0.890823
0.875181
0.860014
0.845671
0.83228
0.819317
0.80656
0.794189
0.78233
0.771045
0.760082
0.749239
0.738653
0.728309
0.718357
0.70858
0.698665
0.6889
0.679383
2.68861
1.70871
1.44161
1.41979
1.39689
1.37396
1.35229
1.32255
1.28481
1.2446
1.20597
1.1696
1.13495
1.10359
1.07547
1.04948
1.02497
1.00192
0.980456
0.960201
0.941025
0.923038
0.906546
0.890811
0.875177
0.859995
0.845641
0.832265
0.819324
0.806577
0.794196
0.782332
0.771049
0.760087
0.749238
0.738641
0.728291
0.718341
0.70857
0.698656
0.68889
0.679378
2.68288
1.71188
1.44259
1.42019
1.39715
1.37411
1.35235
1.32265
1.28494
1.24456
1.20595
1.16961
1.135
1.10361
1.07546
1.04946
1.02497
1.00193
0.980479
0.960213
0.941025
0.923039
0.906553
0.890832
0.875202
0.860013
0.845643
0.832259
0.819331
0.806596
0.794203
0.782317
0.771028
0.760075
0.74924
0.738635
0.728271
0.718331
0.708589
0.698705
0.688937
0.679393
2.68869
1.70861
1.44153
1.41979
1.39689
1.37398
1.35231
1.32259
1.28483
1.24461
1.20596
1.16958
1.13496
1.1036
1.07548
1.0495
1.02498
1.00191
0.980458
0.960202
0.94102
0.923032
0.906533
0.89081
0.875186
0.860007
0.845652
0.832265
0.819312
0.806565
0.794185
0.782324
0.771046
0.760092
0.749248
0.738631
0.728259
0.718317
0.708573
0.69869
0.688925
0.679394
2.66803
1.72481
1.45059
1.42568
1.40061
1.37641
1.35368
1.32345
1.28545
1.24495
1.20627
1.1699
1.1353
1.10385
1.07569
1.04968
1.02516
1.00212
0.980647
0.960342
0.941123
0.923123
0.906611
0.890893
0.875271
0.860098
0.845736
0.832313
0.819336
0.806581
0.794199
0.782336
0.771054
0.760092
0.749235
0.738605
0.728224
0.71829
0.708553
0.698652
0.688864
0.679332
2.67249
1.72241
1.44925
1.42527
1.40051
1.37639
1.35368
1.32342
1.28537
1.24504
1.20629
1.16989
1.13526
1.10383
1.07571
1.04972
1.02517
1.0021
0.980621
0.960326
0.941128
0.923136
0.906606
0.890889
0.875276
0.86011
0.845738
0.83229
0.819296
0.806548
0.794189
0.782346
0.771069
0.760099
0.74925
0.738629
0.728247
0.718286
0.708507
0.698599
0.688843
0.679355
2.66697
1.72687
1.45026
1.42528
1.40055
1.37632
1.35367
1.32343
1.28542
1.24495
1.20627
1.1699
1.13533
1.10383
1.07568
1.0497
1.02516
1.00211
0.980629
0.960322
0.941127
0.923138
0.906595
0.890884
0.875276
0.860115
0.845751
0.8323
0.81931
0.806559
0.79419
0.782348
0.771075
0.760116
0.749283
0.738657
0.728253
0.718255
0.708456
0.698568
0.688836
0.679355
2.6621
1.72925
1.45147
1.42566
1.40085
1.37637
1.35378
1.32353
1.28543
1.24505
1.20633
1.16988
1.1353
1.10384
1.07572
1.04974
1.02516
1.00211
0.980633
0.960325
0.941134
0.923149
0.906603
0.890895
0.875281
0.860111
0.845738
0.83228
0.819291
0.806549
0.794187
0.78235
0.771077
0.760117
0.749273
0.73864
0.728236
0.718237
0.708448
0.698584
0.688875
0.679399
2.67039
1.72532
1.44918
1.42488
1.40048
1.37625
1.35367
1.32336
1.28533
1.24506
1.20631
1.16985
1.13527
1.10381
1.07571
1.04974
1.02515
1.00209
0.980623
0.960316
0.941134
0.923145
0.906586
0.890871
0.875257
0.860099
0.845744
0.832289
0.819298
0.806551
0.794186
0.782354
0.771093
0.760145
0.749304
0.738667
0.72825
0.718225
0.708398
0.698518
0.68881
0.67934
2.6619
1.72943
1.45152
1.42562
1.40085
1.37635
1.35377
1.32352
1.28544
1.24507
1.20635
1.16988
1.13529
1.10382
1.07572
1.04975
1.02517
1.00212
0.980638
0.960322
0.941134
0.923154
0.906604
0.890894
0.875275
0.860103
0.845734
0.832271
0.819287
0.806549
0.794184
0.782353
0.771087
0.760127
0.749285
0.73866
0.728257
0.718238
0.708424
0.698551
0.688853
0.679402
2.66633
1.72746
1.4504
1.42524
1.40057
1.3763
1.35364
1.32341
1.28541
1.24498
1.2063
1.16989
1.13531
1.1038
1.07569
1.04972
1.02517
1.00211
0.980625
0.960313
0.94113
0.923148
0.906596
0.890878
0.875263
0.860101
0.845741
0.832287
0.819295
0.806543
0.794176
0.782346
0.771082
0.760123
0.749291
0.738682
0.728282
0.718265
0.708447
0.69855
0.688816
0.679336
2.67045
1.72426
1.44942
1.42513
1.40061
1.37637
1.35368
1.32339
1.28537
1.24507
1.20634
1.16988
1.13524
1.10381
1.07571
1.04974
1.02519
1.00212
0.980625
0.960322
0.941134
0.923147
0.906606
0.890879
0.875264
0.860102
0.845734
0.832275
0.819276
0.806529
0.794172
0.78234
0.771075
0.760113
0.749277
0.738677
0.728295
0.718289
0.708474
0.698587
0.688865
0.679365
2.66276
1.72943
1.45131
1.42545
1.40074
1.37632
1.35369
1.32346
1.28543
1.245
1.20634
1.1699
1.13526
1.10384
1.07571
1.04972
1.02519
1.00212
0.980627
0.960326
0.941128
0.923142
0.906614
0.890874
0.875254
0.860094
0.845733
0.832293
0.819299
0.806545
0.794177
0.782327
0.77106
0.760108
0.749273
0.738668
0.728284
0.718291
0.708499
0.698622
0.688898
0.679363
2.66714
1.72683
1.45001
1.42522
1.40059
1.37636
1.35364
1.32343
1.28546
1.24495
1.20632
1.16993
1.13529
1.10384
1.07568
1.04969
1.02521
1.00215
0.98065
0.960347
0.941126
0.923122
0.906602
0.890867
0.875255
0.860097
0.845729
0.832283
0.819284
0.806535
0.794178
0.782334
0.771062
0.760099
0.74926
0.738661
0.728297
0.718327
0.708529
0.698629
0.688891
0.679356
2.67292
1.72246
1.4491
1.42521
1.40048
1.37634
1.35362
1.32339
1.28537
1.24502
1.20633
1.16991
1.13523
1.10384
1.0757
1.04971
1.02519
1.0021
0.98061
0.960326
0.941123
0.923133
0.906621
0.890882
0.875262
0.860092
0.84572
0.832287
0.819298
0.806552
0.794186
0.782323
0.771043
0.760091
0.749261
0.73866
0.728292
0.718328
0.708551
0.698653
0.68889
0.679338
2.66818
1.72474
1.4505
1.42566
1.40059
1.37639
1.35366
1.32346
1.28547
1.24496
1.20632
1.16994
1.13529
1.10385
1.07569
1.04968
1.02518
1.00212
0.980632
0.96034
0.941124
0.923128
0.906622
0.890895
0.875272
0.860093
0.845716
0.832294
0.819327
0.80658
0.794192
0.782317
0.771032
0.760072
0.74922
0.738609
0.728266
0.718356
0.708635
0.698741
0.688933
0.679329
2.67332
1.72219
1.44909
1.42521
1.40041
1.37633
1.35362
1.32337
1.28536
1.24503
1.20634
1.16992
1.13524
1.10384
1.0757
1.0497
1.02517
1.00209
0.980601
0.960322
0.941129
0.923143
0.906635
0.890901
0.875269
0.86008
0.845701
0.832282
0.819317
0.806579
0.7942
0.782314
0.771015
0.760067
0.749256
0.738682
0.728333
0.718372
0.708578
0.698653
0.688861
0.6793
2.66823
1.72457
1.45051
1.42575
1.40061
1.37639
1.35365
1.32344
1.28547
1.24499
1.20634
1.16995
1.13532
1.10385
1.07569
1.04967
1.02515
1.00209
0.980618
0.960332
0.941137
0.923153
0.906651
0.890934
0.875282
0.860062
0.845675
0.832281
0.819361
0.806636
0.794226
0.782311
0.770994
0.760029
0.749216
0.738654
0.728327
0.718384
0.708599
0.698683
0.68889
0.679312
2.6733
1.72215
1.44913
1.42525
1.4004
1.37632
1.35361
1.32335
1.28535
1.24507
1.20635
1.16993
1.13527
1.10383
1.0757
1.04969
1.02514
1.00208
0.980603
0.960317
0.941139
0.923156
0.906638
0.890917
0.875259
0.860041
0.845672
0.832288
0.819361
0.806621
0.794204
0.782295
0.770978
0.760003
0.749215
0.738718
0.728437
0.71846
0.708573
0.698588
0.688817
0.679311
2.66818
1.72458
1.45056
1.42575
1.40061
1.37639
1.35364
1.32341
1.28546
1.24501
1.20634
1.16996
1.13533
1.10384
1.07568
1.04966
1.02513
1.00209
0.98062
0.960327
0.941144
0.923166
0.906661
0.890948
0.87528
0.860043
0.845658
0.832283
0.819389
0.806665
0.794234
0.782306
0.770984
0.760012
0.749201
0.738667
0.728376
0.718419
0.708552
0.698581
0.688824
0.679343
2.67316
1.72213
1.44916
1.42527
1.40044
1.37634
1.3536
1.32334
1.28536
1.24507
1.20638
1.16995
1.13527
1.10384
1.07569
1.04967
1.02514
1.00208
0.9806
0.960323
0.941145
0.92316
0.906649
0.890917
0.875254
0.860032
0.845658
0.83229
0.819377
0.806635
0.794213
0.782293
0.770966
0.759992
0.749207
0.738728
0.728473
0.718496
0.708576
0.698555
0.688778
0.679282
2.66808
1.72476
1.45059
1.42569
1.40059
1.37639
1.3536
1.32338
1.28546
1.245
1.20637
1.16997
1.13531
1.10385
1.07567
1.04963
1.02513
1.00208
0.980613
0.960335
0.941148
0.923167
0.906676
0.890946
0.875277
0.860042
0.845647
0.832282
0.819394
0.806668
0.794245
0.782312
0.770987
0.760015
0.7492
0.738673
0.728386
0.718421
0.708548
0.698562
0.688794
0.679323
2.67213
1.72255
1.44952
1.42538
1.40051
1.37637
1.35359
1.32331
1.28537
1.24507
1.20641
1.16996
1.13524
1.10384
1.07569
1.04967
1.02515
1.00208
0.980599
0.960332
0.941149
0.923158
0.906662
0.890914
0.875249
0.860033
0.845652
0.83229
0.819379
0.806633
0.794223
0.782305
0.770978
0.760001
0.749196
0.738706
0.728448
0.718485
0.708587
0.698567
0.688786
0.679294
2.66804
1.72478
1.45063
1.42573
1.40062
1.37639
1.35357
1.32335
1.28546
1.245
1.20638
1.16997
1.13527
1.10385
1.07566
1.04963
1.02514
1.00209
0.980614
0.960345
0.941154
0.923166
0.90668
0.890934
0.875268
0.860045
0.845649
0.832283
0.819387
0.806658
0.794247
0.782321
0.771002
0.760037
0.749216
0.738661
0.728341
0.718384
0.708565
0.698614
0.688836
0.679323
2.67308
1.72215
1.44918
1.42529
1.40048
1.37637
1.35355
1.32328
1.28537
1.24507
1.20641
1.16996
1.13521
1.10384
1.07568
1.04966
1.02516
1.00208
0.980594
0.960341
0.941156
0.923159
0.906664
0.890902
0.87524
0.860036
0.84566
0.832292
0.819369
0.806625
0.79423
0.782326
0.771014
0.760044
0.749218
0.738648
0.728315
0.71837
0.708599
0.698679
0.688883
0.67932
2.66798
1.72481
1.45068
1.42575
1.40064
1.3764
1.35356
1.32333
1.28546
1.24498
1.20637
1.16996
1.13525
1.10383
1.07566
1.04964
1.02517
1.00211
0.980629
0.960356
0.941152
0.923152
0.906659
0.890898
0.875246
0.860065
0.845693
0.832299
0.819355
0.806616
0.794241
0.782344
0.771029
0.760056
0.749216
0.738623
0.72827
0.718333
0.708593
0.698691
0.688896
0.67932
2.67252
1.7224
1.44928
1.42534
1.40056
1.37638
1.35357
1.32329
1.28537
1.24506
1.2064
1.16995
1.1352
1.10383
1.07568
1.04967
1.02517
1.00209
0.980603
0.960348
0.941159
0.923156
0.906651
0.890883
0.875244
0.86007
0.845685
0.832269
0.819323
0.806615
0.794266
0.782365
0.771034
0.760055
0.74921
0.738614
0.728258
0.718329
0.708598
0.698703
0.688914
0.67932
2.66712
1.72673
1.45019
1.42537
1.40062
1.37636
1.35358
1.32332
1.28543
1.24495
1.20636
1.16996
1.13525
1.10383
1.07565
1.04964
1.02518
1.00213
0.980642
0.960365
0.941157
0.923145
0.906638
0.890871
0.875239
0.860081
0.845711
0.832289
0.819322
0.806594
0.794246
0.782366
0.771051
0.760072
0.749229
0.738639
0.728274
0.718315
0.708542
0.698629
0.688875
0.679337
2.66288
1.72895
1.45124
1.42563
1.40084
1.37637
1.35369
1.32341
1.28544
1.24501
1.20639
1.16995
1.13524
1.10385
1.07569
1.04966
1.02516
1.00211
0.980622
0.960353
0.941159
0.923161
0.906656
0.890885
0.875244
0.860081
0.845715
0.832299
0.81933
0.806595
0.794242
0.782358
0.771044
0.760068
0.749225
0.73863
0.728265
0.71831
0.708554
0.698656
0.6889
0.679343
2.67151
1.72387
1.44925
1.42513
1.40052
1.37634
1.35361
1.3233
1.28534
1.24502
1.20635
1.16992
1.13521
1.10384
1.07569
1.04968
1.02516
1.00209
0.980613
0.960346
0.941153
0.923146
0.906641
0.890882
0.875247
0.860078
0.8457
0.832278
0.819322
0.806606
0.794259
0.782368
0.771043
0.760063
0.749221
0.738634
0.72828
0.718316
0.708526
0.698605
0.688855
0.679342
2.66764
1.72496
1.45064
1.42574
1.40069
1.37643
1.35365
1.3234
1.28546
1.24497
1.20633
1.16994
1.13528
1.10385
1.07568
1.04966
1.02515
1.0021
0.980628
0.960352
0.941153
0.923157
0.906662
0.890906
0.875252
0.860073
0.845721
0.832321
0.819349
0.806584
0.794206
0.782339
0.771047
0.760076
0.749226
0.738634
0.728286
0.718332
0.708552
0.698633
0.688864
0.679344
2.67314
1.72226
1.44919
1.42523
1.40044
1.37636
1.35361
1.32333
1.28534
1.24502
1.20632
1.16991
1.13523
1.10385
1.0757
1.04968
1.02516
1.00209
0.980615
0.96034
0.941145
0.923142
0.906639
0.890894
0.875247
0.860055
0.845691
0.832306
0.819356
0.8066
0.794213
0.78234
0.771051
0.760082
0.749225
0.738622
0.728268
0.718316
0.708542
0.698624
0.688855
0.679338
2.66814
1.72457
1.45055
1.42575
1.40066
1.37644
1.35366
1.32342
1.28547
1.24496
1.2063
1.16992
1.13528
1.10386
1.07569
1.04967
1.02516
1.00211
0.980636
0.960351
0.941145
0.923143
0.906645
0.890914
0.875273
0.860072
0.845692
0.832299
0.819363
0.80662
0.79422
0.782325
0.771029
0.760069
0.749227
0.738617
0.728249
0.718306
0.708559
0.698672
0.688901
0.679354
2.67321
1.72217
1.44911
1.42522
1.40044
1.37637
1.35363
1.32337
1.28536
1.24502
1.20631
1.1699
1.13524
1.10385
1.07571
1.0497
1.02516
1.00209
0.980616
0.960341
0.94114
0.923136
0.906625
0.890892
0.875256
0.860066
0.845702
0.832306
0.819344
0.806588
0.794202
0.782332
0.771048
0.760086
0.749235
0.738613
0.728236
0.718291
0.708543
0.698656
0.688889
0.679355
2.6399
1.73404
1.45663
1.43209
1.40607
1.38011
1.35624
1.32549
1.28714
1.24634
1.20747
1.17097
1.13625
1.1047
1.07644
1.05033
1.0257
1.00257
0.981053
0.960707
0.941452
0.923419
0.906885
0.891148
0.875502
0.860304
0.845922
0.832481
0.819486
0.806713
0.794316
0.782438
0.771147
0.760172
0.749305
0.738663
0.728271
0.71833
0.708587
0.69868
0.688886
0.679347
2.6415
1.73362
1.45597
1.43178
1.40584
1.37992
1.35613
1.32536
1.287
1.24641
1.20748
1.17095
1.13621
1.10468
1.07646
1.05036
1.0257
1.00255
0.981026
0.960692
0.941458
0.923432
0.906881
0.891144
0.875507
0.860316
0.845924
0.832458
0.819446
0.806681
0.794307
0.782448
0.771162
0.760179
0.749319
0.738686
0.728294
0.718327
0.708543
0.698627
0.688864
0.67937
2.63887
1.73599
1.45633
1.43171
1.40602
1.38002
1.35623
1.32548
1.2871
1.24634
1.20747
1.17097
1.13628
1.10467
1.07643
1.05034
1.02569
1.00256
0.981034
0.960687
0.941456
0.923434
0.906869
0.891139
0.875507
0.860321
0.845936
0.832468
0.81946
0.806692
0.794307
0.78245
0.771168
0.760196
0.749351
0.738714
0.728301
0.718296
0.708491
0.698595
0.688857
0.679371
2.63425
1.7385
1.45751
1.43201
1.40625
1.38002
1.35631
1.32554
1.2871
1.24644
1.20753
1.17095
1.13625
1.10468
1.07646
1.05038
1.02569
1.00256
0.981037
0.960691
0.941463
0.923445
0.906876
0.89115
0.875512
0.860317
0.845923
0.832447
0.819441
0.806682
0.794304
0.782452
0.771169
0.760196
0.749342
0.738697
0.728284
0.718278
0.708483
0.698611
0.688897
0.679414
2.63947
1.73646
1.45589
1.4314
1.40581
1.37978
1.35611
1.32531
1.28696
1.24644
1.20749
1.17091
1.13621
1.10466
1.07645
1.05038
1.02568
1.00254
0.981029
0.960683
0.941463
0.923442
0.906861
0.891126
0.875487
0.860305
0.845929
0.832457
0.819448
0.806684
0.794303
0.782455
0.771186
0.760225
0.749372
0.738724
0.728299
0.718266
0.708433
0.698546
0.688832
0.679355
2.63402
1.73868
1.45756
1.43199
1.40627
1.38001
1.35631
1.32553
1.28711
1.24645
1.20754
1.17094
1.13624
1.10466
1.07646
1.05039
1.0257
1.00257
0.981042
0.960688
0.941463
0.92345
0.906878
0.891148
0.875506
0.860309
0.845919
0.832438
0.819437
0.806682
0.7943
0.782455
0.77118
0.760207
0.749354
0.738717
0.728305
0.71828
0.708459
0.698578
0.688873
0.679416
2.63824
1.73657
1.45647
1.43167
1.40605
1.37999
1.3562
1.32546
1.2871
1.24637
1.2075
1.17096
1.13626
1.10465
1.07643
1.05036
1.0257
1.00256
0.98103
0.960679
0.941459
0.923444
0.90687
0.891133
0.875493
0.860307
0.845927
0.832454
0.819444
0.806676
0.794293
0.782448
0.771175
0.760203
0.74936
0.738738
0.72833
0.718306
0.708482
0.698578
0.688838
0.679351
2.63948
1.73545
1.45613
1.43165
1.40593
1.3799
1.35612
1.32534
1.287
1.24645
1.20752
1.17094
1.13619
1.10466
1.07646
1.05039
1.02572
1.00257
0.98103
0.960688
0.941463
0.923443
0.90688
0.891134
0.875495
0.860308
0.845919
0.832443
0.819426
0.806662
0.794289
0.782442
0.771167
0.760193
0.749345
0.738735
0.728342
0.71833
0.70851
0.698614
0.688886
0.679381
2.63481
1.7387
1.45736
1.43183
1.40616
1.37998
1.35623
1.32548
1.2871
1.24638
1.20753
1.17096
1.13621
1.10468
1.07645
1.05036
1.02572
1.00257
0.981032
0.960691
0.941457
0.923438
0.906888
0.891129
0.875484
0.8603
0.845919
0.832461
0.819448
0.806678
0.794294
0.782429
0.771152
0.760187
0.749342
0.738726
0.728332
0.718332
0.708534
0.698649
0.688919
0.679379
2.639
1.73597
1.45609
1.43165
1.40606
1.38006
1.3562
1.32548
1.28714
1.24635
1.20752
1.171
1.13624
1.10468
1.07642
1.05033
1.02574
1.0026
0.981055
0.960713
0.941455
0.923418
0.906876
0.891122
0.875486
0.860304
0.845915
0.832451
0.819434
0.806667
0.794295
0.782436
0.771155
0.760179
0.749329
0.738717
0.728344
0.718368
0.708564
0.698657
0.688913
0.679372
2.64195
1.73365
1.45581
1.43172
1.40581
1.37988
1.35607
1.32533
1.287
1.24639
1.20751
1.17097
1.13617
1.10468
1.07645
1.05035
1.02572
1.00255
0.981016
0.960692
0.941452
0.923429
0.906895
0.891137
0.875493
0.860299
0.845906
0.832455
0.819449
0.806685
0.794304
0.782426
0.771136
0.760171
0.74933
0.738717
0.728339
0.718369
0.708586
0.698681
0.688912
0.679353
2.64005
1.73397
1.45654
1.43207
1.40606
1.38008
1.35622
1.3255
1.28715
1.24635
1.20752
1.17101
1.13624
1.1047
1.07644
1.05033
1.02572
1.00257
0.981037
0.960705
0.941453
0.923425
0.906896
0.89115
0.875503
0.860299
0.845901
0.832462
0.819477
0.806713
0.794309
0.782418
0.771125
0.760153
0.74929
0.738667
0.728312
0.718395
0.708668
0.69877
0.688956
0.679345
2.64229
1.73342
1.45582
1.43172
1.40573
1.37986
1.35606
1.32532
1.28699
1.2464
1.20752
1.17098
1.13619
1.10468
1.07645
1.05034
1.0257
1.00254
0.981007
0.960688
0.941458
0.92344
0.906909
0.891157
0.875499
0.860286
0.845886
0.83245
0.819467
0.806712
0.794317
0.782416
0.771108
0.760147
0.749325
0.738739
0.72838
0.718412
0.708613
0.698681
0.688883
0.679316
2.6401
1.7338
1.45655
1.43215
1.40608
1.38008
1.35621
1.32548
1.28715
1.24638
1.20754
1.17102
1.13627
1.10469
1.07643
1.05032
1.02568
1.00254
0.981023
0.960698
0.941466
0.92345
0.906925
0.89119
0.875513
0.860268
0.84586
0.832448
0.81951
0.806769
0.794344
0.782413
0.771086
0.760109
0.749285
0.738712
0.728375
0.718424
0.708633
0.698711
0.688912
0.679328
2.64226
1.73338
1.45586
1.43176
1.40573
1.37985
1.35605
1.3253
1.28698
1.24644
1.20754
1.17099
1.13622
1.10467
1.07645
1.05034
1.02567
1.00253
0.981008
0.960683
0.941469
0.923453
0.906912
0.891172
0.87549
0.860247
0.845857
0.832457
0.819511
0.806754
0.794321
0.782397
0.77107
0.760084
0.749283
0.738773
0.728484
0.718502
0.708608
0.698615
0.688838
0.679326
2.64005
1.73381
1.4566
1.43216
1.40607
1.38008
1.3562
1.32546
1.28714
1.24641
1.20754
1.17102
1.13628
1.10468
1.07643
1.0503
1.02566
1.00254
0.981025
0.960693
0.941473
0.923463
0.906935
0.891203
0.875511
0.860249
0.845843
0.83245
0.819539
0.806798
0.794352
0.782408
0.771076
0.760092
0.74927
0.738724
0.728424
0.71846
0.708587
0.698607
0.688844
0.679358
2.64213
1.73336
1.4559
1.43178
1.40576
1.37987
1.35604
1.32528
1.28699
1.24644
1.20756
1.17101
1.13621
1.10468
1.07644
1.05032
1.02567
1.00253
0.981006
0.96069
0.941474
0.923456
0.906923
0.891173
0.875484
0.860238
0.845843
0.832459
0.819528
0.806768
0.794331
0.782396
0.771059
0.760073
0.749275
0.738784
0.72852
0.718538
0.708611
0.698582
0.688798
0.679298
2.63991
1.73402
1.45664
1.4321
1.40606
1.38008
1.35617
1.32543
1.28715
1.24639
1.20757
1.17104
1.13626
1.10469
1.07642
1.05028
1.02566
1.00253
0.981018
0.960701
0.941477
0.923464
0.90695
0.891202
0.875508
0.860248
0.845832
0.832449
0.819544
0.806802
0.794364
0.782415
0.77108
0.760094
0.749268
0.73873
0.728434
0.718463
0.708584
0.698588
0.688815
0.679338
2.64104
1.73384
1.45627
1.43189
1.40583
1.3799
1.35603
1.32526
1.287
1.24644
1.20759
1.17102
1.13618
1.10469
1.07643
1.05031
1.02568
1.00253
0.981004
0.960698
0.941479
0.923454
0.906936
0.891169
0.87548
0.860239
0.845837
0.832458
0.819529
0.806766
0.79434
0.782408
0.771071
0.760081
0.749264
0.738761
0.728495
0.718527
0.708623
0.698594
0.688806
0.67931
2.63988
1.73404
1.45667
1.43213
1.40609
1.38008
1.35614
1.32539
1.28715
1.24639
1.20758
1.17104
1.13622
1.10469
1.07641
1.05028
1.02568
1.00254
0.98102
0.960711
0.941483
0.923462
0.906954
0.891189
0.875499
0.860251
0.845834
0.83245
0.819537
0.806791
0.794365
0.782424
0.771094
0.760117
0.749285
0.738719
0.728389
0.718425
0.7086
0.698642
0.688858
0.679339
2.64205
1.73337
1.45591
1.4318
1.40581
1.37989
1.356
1.32523
1.287
1.24644
1.20759
1.17102
1.13616
1.10468
1.07643
1.05031
1.02569
1.00253
0.980999
0.960708
0.941486
0.923456
0.906938
0.891157
0.875471
0.860242
0.845845
0.83246
0.81952
0.806759
0.794347
0.782428
0.771106
0.760124
0.749287
0.738705
0.728363
0.718411
0.708634
0.698706
0.688905
0.679336
2.63986
1.73404
1.45672
1.43215
1.40611
1.38009
1.35613
1.32538
1.28714
1.24638
1.20757
1.17103
1.1362
1.10467
1.07641
1.05029
1.0257
1.00256
0.981034
0.960721
0.941481
0.923448
0.906933
0.891153
0.875477
0.860271
0.845879
0.832467
0.819504
0.806749
0.794358
0.782446
0.771121
0.760136
0.749286
0.738681
0.728317
0.718372
0.708626
0.698719
0.688919
0.679335
2.64153
1.73361
1.456
1.43185
1.40589
1.37991
1.35601
1.32524
1.287
1.24643
1.20758
1.17101
1.13615
1.10467
1.07643
1.05031
1.0257
1.00254
0.981009
0.960714
0.941489