/*--------------------------------*- C++ -*----------------------------------*\
  =========                 |
  \\      /  F ield         | OpenFOAM: The Open Source CFD Toolbox
   \\    /   O peration     | Website:  https://openfoam.org
    \\  /    A nd           | Version:  9
     \\/     M anipulation  |
\*---------------------------------------------------------------------------*/
FoamFile
{
    format      ascii;
    class       surfaceScalarField;
    location    "1200";
    object      phi;
}
// * * * * * * * * * * * * * * * * * * * * * * * * * * * * * * * * * * * * * //

dimensions      [0 3 -1 0 0 0 0];

internalField   nonuniform List<scalar> 
240945
(
5.0572e-05
-1.01949e-08
8.69438e-06
4.53557e-05
7.54825e-09
5.20231e-06
4.28111e-05
1.05283e-09
2.54156e-06
4.22965e-05
4.95688e-10
5.12819e-07
4.28864e-05
3.44463e-10
-5.91574e-07
4.38086e-05
2.41056e-10
-9.23004e-07
4.46703e-05
3.67514e-11
-8.61424e-07
4.5347e-05
9.93998e-11
-6.76456e-07
4.58346e-05
2.61588e-10
-4.87735e-07
4.61651e-05
-2.25485e-11
-3.30291e-07
4.63801e-05
-5.39651e-12
-2.15064e-07
4.65185e-05
-1.1024e-11
-1.3871e-07
4.66089e-05
1.51528e-11
-9.07744e-08
4.66711e-05
3.42346e-11
-6.22596e-08
4.67178e-05
1.0524e-11
-4.62702e-08
4.67543e-05
-6.82509e-11
-3.6107e-08
4.67813e-05
-3.78032e-11
-2.69418e-08
4.67993e-05
7.39883e-11
-1.81901e-08
4.68113e-05
1.58521e-10
-1.23542e-08
4.68209e-05
1.03013e-10
-9.67958e-09
4.68305e-05
1.01535e-12
-9.2825e-09
4.68408e-05
-6.71415e-12
-1.01261e-08
4.68533e-05
1.31143e-10
-1.23892e-08
4.6868e-05
1.59414e-10
-1.47532e-08
4.68834e-05
-5.61499e-13
-1.55819e-08
4.68989e-05
-1.84069e-10
-1.55837e-08
4.69147e-05
-2.03724e-10
-1.5941e-08
4.69321e-05
2.43358e-11
-1.73994e-08
4.69515e-05
3.25957e-10
-1.92802e-08
4.69724e-05
4.04554e-10
-2.08777e-08
4.69945e-05
3.41122e-10
-2.21328e-08
4.70179e-05
1.95895e-10
-2.34025e-08
4.70431e-05
-2.55531e-12
-2.52447e-08
4.70706e-05
-2.49512e-10
-2.74049e-08
4.71e-05
-4.90215e-10
-2.91282e-08
4.71305e-05
-6.01466e-10
-3.00145e-08
4.71611e-05
-4.26652e-10
-3.01606e-08
4.71918e-05
2.31377e-10
-3.0684e-08
4.72228e-05
8.69058e-10
-3.14648e-08
4.7254e-05
1.10077e-09
-3.17251e-08
4.72856e-05
9.06408e-10
-3.1841e-08
3.6614e-10
-3.20711e-08
5.05972e-05
2.25232e-08
8.61334e-06
4.5367e-05
-5.57759e-09
5.24457e-06
4.28138e-05
-5.39664e-09
2.56019e-06
4.22948e-05
-2.76569e-09
5.21909e-07
4.28848e-05
-2.55164e-09
-5.8779e-07
4.38082e-05
-1.87804e-09
-9.21569e-07
4.4671e-05
-1.43794e-09
-8.60747e-07
4.53482e-05
-1.22289e-09
-6.75334e-07
4.5836e-05
-1.12471e-09
-4.8609e-07
4.61668e-05
-6.94968e-10
-3.30173e-07
4.6382e-05
-6.58973e-10
-2.14809e-07
4.65204e-05
-6.67483e-10
-1.38127e-07
4.66105e-05
-6.82295e-10
-8.96009e-08
4.66725e-05
-3.39368e-10
-6.15324e-08
4.67189e-05
-1.96822e-10
-4.58504e-08
4.67553e-05
-2.0596e-10
-3.59203e-08
4.67822e-05
-2.10013e-10
-2.67028e-08
4.68e-05
-2.05146e-10
-1.76357e-08
4.68118e-05
-1.63328e-10
-1.1618e-08
4.68214e-05
-1.30704e-10
-9.21941e-09
4.68308e-05
-1.691e-10
-9.0974e-09
4.68412e-05
-1.62784e-10
-1.01081e-08
4.68538e-05
-4.44923e-11
-1.24155e-08
4.68686e-05
-2.02562e-11
-1.47171e-08
4.68841e-05
-5.03632e-11
-1.56009e-08
4.68995e-05
-1.15091e-10
-1.55654e-08
4.69152e-05
-1.22456e-10
-1.5738e-08
4.69324e-05
-3.77823e-11
-1.7047e-08
4.69516e-05
1.53532e-11
-1.88202e-08
4.69725e-05
3.87956e-11
-2.0549e-08
4.69949e-05
8.02243e-11
-2.20684e-08
4.70185e-05
4.28106e-11
-2.35078e-08
4.7044e-05
-1.11712e-10
-2.53974e-08
4.70717e-05
-3.60958e-10
-2.75155e-08
4.7101e-05
-5.41487e-10
-2.92251e-08
4.71312e-05
-4.90318e-10
-3.02432e-08
4.71614e-05
-1.30954e-10
-3.0455e-08
4.71916e-05
5.68272e-10
-3.06215e-08
4.72224e-05
9.92908e-10
-3.08822e-08
4.72535e-05
8.6098e-10
-3.08844e-08
4.72851e-05
4.34276e-10
-3.11878e-08
1.72892e-11
-3.19309e-08
5.05709e-05
1.65243e-08
8.67837e-06
4.53544e-05
-5.18261e-10
5.21244e-06
4.28076e-05
-5.31785e-09
2.54729e-06
4.22935e-05
-2.47215e-09
5.13583e-07
4.28843e-05
-1.86057e-09
-5.92256e-07
4.38073e-05
-9.16921e-10
-9.24171e-07
4.46693e-05
-8.74853e-10
-8.62157e-07
4.53461e-05
-8.14215e-10
-6.7668e-07
4.58338e-05
-6.22404e-10
-4.87863e-07
4.61643e-05
-8.0601e-10
-3.30456e-07
4.63795e-05
-8.2954e-10
-2.15306e-07
4.65181e-05
-4.88455e-10
-1.39136e-07
4.66085e-05
-1.70899e-10
-9.10605e-08
4.66706e-05
-1.08667e-10
-6.22231e-08
4.67169e-05
-1.8588e-10
-4.59672e-08
4.6753e-05
-2.97239e-10
-3.57546e-08
4.67797e-05
-2.3429e-10
-2.66696e-08
4.67975e-05
-1.85146e-10
-1.78583e-08
4.68094e-05
-1.72173e-10
-1.20115e-08
4.68191e-05
-1.64493e-10
-9.62757e-09
4.68288e-05
-1.70565e-10
-9.47118e-09
4.68393e-05
-1.39642e-10
-1.0396e-08
4.68519e-05
-5.46169e-11
-1.26014e-08
4.68667e-05
-3.01184e-11
-1.48832e-08
4.68823e-05
-1.58913e-11
-1.57452e-08
4.68979e-05
-1.74411e-12
-1.57523e-08
4.69137e-05
1.91991e-11
-1.59786e-08
4.6931e-05
5.61498e-11
-1.73463e-08
4.69503e-05
6.85628e-11
-1.92363e-08
4.69712e-05
4.92694e-11
-2.08936e-08
4.69935e-05
2.61292e-11
-2.22133e-08
4.70171e-05
-3.33067e-11
-2.35549e-08
4.70426e-05
-1.71422e-10
-2.54592e-08
4.70703e-05
-2.98289e-10
-2.77174e-08
4.70996e-05
-3.14533e-10
-2.95139e-08
4.71297e-05
-1.63744e-10
-3.043e-08
4.71599e-05
1.92204e-10
-3.04157e-08
4.71901e-05
6.41307e-10
-3.02878e-08
4.72208e-05
8.22191e-10
-3.05617e-08
4.7252e-05
6.80019e-10
-3.10124e-08
4.72837e-05
3.20404e-10
-3.16604e-08
-8.90119e-11
-3.23408e-08
5.05492e-05
-2.10565e-08
8.7316e-06
4.53397e-05
8.55936e-09
5.20147e-06
4.28024e-05
4.54145e-09
2.52794e-06
4.22937e-05
2.83375e-09
5.03189e-07
4.28853e-05
2.16578e-09
-5.96269e-07
4.38069e-05
1.48644e-09
-9.24223e-07
4.46679e-05
1.14117e-09
-8.62565e-07
4.5344e-05
9.78899e-10
-6.77378e-07
4.5831e-05
6.95293e-10
-4.88125e-07
4.61613e-05
2.09882e-10
-3.31291e-07
4.63762e-05
6.66701e-11
-2.16126e-07
4.65146e-05
1.59888e-10
-1.39329e-07
4.66048e-05
4.00849e-10
-9.09791e-08
4.66671e-05
4.60902e-10
-6.27104e-08
4.67136e-05
3.28745e-10
-4.67383e-08
4.675e-05
1.34316e-10
-3.65311e-08
4.67769e-05
3.22202e-11
-2.7159e-08
4.67948e-05
-5.47677e-11
-1.81692e-08
4.6807e-05
-7.83421e-11
-1.22805e-08
4.68168e-05
4.59055e-12
-9.94208e-09
4.68265e-05
4.63467e-11
-9.7503e-09
4.6837e-05
5.5513e-11
-1.05846e-08
4.68496e-05
8.90336e-11
-1.27363e-08
4.68643e-05
1.31377e-10
-1.49936e-08
4.68798e-05
1.944e-10
-1.58331e-08
4.68953e-05
1.9256e-10
-1.57636e-08
4.69111e-05
1.37952e-10
-1.59272e-08
4.69285e-05
1.19994e-10
-1.73404e-08
4.69478e-05
1.01149e-10
-1.92786e-08
4.69688e-05
8.27616e-11
-2.09855e-08
4.69911e-05
5.94212e-11
-2.23429e-08
4.70147e-05
2.76728e-12
-2.36505e-08
4.70402e-05
-1.16241e-10
-2.55095e-08
4.70678e-05
-2.53277e-10
-2.76678e-08
4.70972e-05
-3.21703e-10
-2.93583e-08
4.71276e-05
-3.14679e-10
-3.01962e-08
4.71581e-05
-1.34505e-10
-3.01974e-08
4.71888e-05
2.73538e-10
-3.03294e-08
4.72199e-05
6.39278e-10
-3.09365e-08
4.72514e-05
7.09044e-10
-3.14857e-08
4.72833e-05
4.84665e-10
-3.20733e-08
1.42883e-10
-3.26886e-08
5.05926e-05
2.22987e-08
8.60733e-06
4.53645e-05
-8.34805e-09
5.246e-06
4.28091e-05
-5.15429e-09
2.5656e-06
4.22902e-05
-3.12771e-09
5.24786e-07
4.28811e-05
-2.31746e-09
-5.87046e-07
4.38052e-05
-1.45543e-09
-9.21471e-07
4.46687e-05
-1.08594e-09
-8.60763e-07
4.53462e-05
-9.69424e-10
-6.75144e-07
4.5834e-05
-8.90117e-10
-4.86064e-07
4.61647e-05
-5.67207e-10
-3.29917e-07
4.63797e-05
-4.5058e-10
-2.14746e-07
4.6518e-05
-2.97225e-10
-1.38163e-07
4.66083e-05
-2.05808e-10
-8.97102e-08
4.66704e-05
-3.88121e-11
-6.15612e-08
4.67167e-05
6.15301e-11
-4.57604e-08
4.67528e-05
-1.67543e-12
-3.56654e-08
4.67793e-05
-1.88358e-10
-2.63156e-08
4.67968e-05
-2.18496e-10
-1.74949e-08
4.68087e-05
-1.33243e-10
-1.17827e-08
4.68182e-05
-7.4386e-11
-9.42713e-09
4.68277e-05
-5.33151e-11
-9.26661e-09
4.68381e-05
-8.0631e-11
-1.0136e-08
4.68506e-05
-1.06084e-10
-1.23572e-08
4.68655e-05
-1.118e-10
-1.46717e-08
4.68813e-05
-1.06452e-10
-1.55671e-08
4.68971e-05
-5.5047e-11
-1.56782e-08
4.69133e-05
1.86092e-11
-1.60259e-08
4.69308e-05
7.12318e-11
-1.74384e-08
4.69502e-05
6.73148e-11
-1.92765e-08
4.69711e-05
4.65747e-11
-2.08816e-08
4.69934e-05
7.15689e-11
-2.22525e-08
4.70169e-05
1.31772e-10
-2.36569e-08
4.70422e-05
1.64886e-10
-2.56062e-08
4.70697e-05
1.67432e-10
-2.78063e-08
4.70986e-05
1.16163e-10
-2.93927e-08
4.71285e-05
1.26429e-11
-3.01273e-08
4.71585e-05
-1.76454e-10
-2.99516e-08
4.71888e-05
-2.95876e-10
-2.97927e-08
4.72198e-05
-2.75489e-10
-3.00989e-08
4.72514e-05
-2.58403e-10
-3.06032e-08
4.72836e-05
-3.18658e-10
-3.13864e-08
-3.8793e-10
-3.22435e-08
5.05495e-05
-1.32736e-08
8.72935e-06
4.53399e-05
9.50175e-10
5.20122e-06
4.28023e-05
4.16422e-09
2.52891e-06
4.22933e-05
1.90737e-09
5.03791e-07
4.2885e-05
1.49703e-09
-5.96058e-07
4.38066e-05
7.23189e-10
-9.24091e-07
4.46678e-05
7.87046e-10
-8.62562e-07
4.53439e-05
7.02614e-10
-6.77363e-07
4.58309e-05
4.3088e-10
-4.88158e-07
4.6161e-05
4.92453e-10
-3.31216e-07
4.63759e-05
4.69669e-10
-2.16033e-07
4.65142e-05
3.22874e-10
-1.39262e-07
4.66046e-05
2.5761e-10
-9.09238e-08
4.6667e-05
3.28667e-10
-6.26497e-08
4.67136e-05
3.79594e-10
-4.66529e-08
4.675e-05
2.91691e-10
-3.64466e-08
4.67769e-05
7.94187e-11
-2.71754e-08
4.67948e-05
1.9685e-11
-1.82609e-08
4.6807e-05
6.91184e-11
-1.23855e-08
4.68168e-05
9.60493e-11
-9.97901e-09
4.68265e-05
8.24834e-11
-9.70197e-09
4.6837e-05
4.41257e-11
-1.05083e-08
4.68495e-05
2.14419e-11
-1.26793e-08
4.68643e-05
6.63304e-11
-1.49367e-08
4.68797e-05
8.54487e-11
-1.57785e-08
4.68953e-05
8.14935e-11
-1.5734e-08
4.69111e-05
7.54704e-11
-1.5932e-08
4.69285e-05
5.7971e-11
-1.73343e-08
4.69479e-05
7.26765e-11
-1.93243e-08
4.6969e-05
1.12549e-10
-2.10834e-08
4.69913e-05
1.60462e-10
-2.24384e-08
4.70149e-05
2.69728e-10
-2.37702e-08
4.70404e-05
3.51063e-10
-2.56348e-08
4.7068e-05
4.02961e-10
-2.78095e-08
4.70973e-05
3.52547e-10
-2.94721e-08
4.71274e-05
1.18833e-10
-3.0253e-08
4.71578e-05
-2.86909e-10
-3.02069e-08
4.71883e-05
-6.53876e-10
-3.02021e-08
4.72194e-05
-8.31382e-10
-3.05702e-08
4.7251e-05
-7.98179e-10
-3.1053e-08
4.72831e-05
-4.83764e-10
-3.19054e-08
1.09837e-10
-3.29775e-08
5.05708e-05
-1.41383e-08
8.67331e-06
4.53546e-05
5.91143e-09
5.21226e-06
4.28069e-05
3.37098e-09
2.54899e-06
4.22924e-05
1.53922e-09
5.14818e-07
4.28833e-05
1.34652e-09
-5.91383e-07
4.38065e-05
1.06545e-09
-9.23727e-07
4.46687e-05
8.00278e-10
-8.61856e-07
4.53456e-05
7.09124e-10
-6.76477e-07
4.58332e-05
6.94244e-10
-4.87699e-07
4.61637e-05
2.88269e-10
-3.30243e-07
4.63788e-05
1.90953e-10
-2.15084e-07
4.65174e-05
3.02427e-10
-1.38912e-07
4.6608e-05
5.08448e-10
-9.08974e-08
4.66703e-05
2.947e-10
-6.21751e-08
4.67167e-05
1.61613e-10
-4.58801e-08
4.67527e-05
5.60038e-11
-3.56045e-08
4.67794e-05
-2.38251e-11
-2.65127e-08
4.6797e-05
-3.49683e-11
-1.77232e-08
4.6809e-05
-3.34431e-11
-1.19479e-08
4.68189e-05
-5.17192e-11
-9.63986e-09
4.68286e-05
-1.55324e-11
-9.48728e-09
4.68391e-05
1.0387e-11
-1.03478e-08
4.68516e-05
-3.42677e-11
-1.24802e-08
4.68663e-05
6.89447e-12
-1.47179e-08
4.68819e-05
4.17422e-11
-1.56182e-08
4.68975e-05
6.07618e-11
-1.56732e-08
4.69135e-05
6.80438e-11
-1.59302e-08
4.69308e-05
5.25483e-11
-1.73298e-08
4.69501e-05
8.51594e-11
-1.92218e-08
4.6971e-05
9.90855e-11
-2.08371e-08
4.69932e-05
9.65526e-11
-2.21608e-08
4.70168e-05
1.89744e-10
-2.35455e-08
4.70424e-05
3.18289e-10
-2.5535e-08
4.70702e-05
4.07527e-10
-2.77277e-08
4.70995e-05
4.56296e-10
-2.94376e-08
4.71297e-05
3.35714e-10
-3.0337e-08
4.71598e-05
-1.82674e-11
-3.03661e-08
4.71899e-05
-5.241e-10
-3.03008e-08
4.72206e-05
-8.94759e-10
-3.06014e-08
4.72517e-05
-9.59884e-10
-3.09792e-08
4.72835e-05
-7.4957e-10
-3.15037e-08
-2.62028e-10
-3.20702e-08
5.05922e-05
2.27374e-08
8.61423e-06
4.53633e-05
-9.18143e-09
5.24496e-06
4.28096e-05
-4.83023e-09
2.56242e-06
4.22914e-05
-2.63899e-09
5.22258e-07
4.28823e-05
-2.32303e-09
-5.87839e-07
4.38063e-05
-1.60023e-09
-9.21513e-07
4.46694e-05
-1.21186e-09
-8.60642e-07
4.53467e-05
-1.05501e-09
-6.7514e-07
4.58344e-05
-9.00173e-10
-4.85914e-07
4.6165e-05
-4.23041e-10
-3.29887e-07
4.638e-05
-4.41514e-10
-2.14654e-07
4.65184e-05
-4.02661e-10
-1.38018e-07
4.66088e-05
-3.74208e-10
-8.95646e-08
4.66711e-05
-3.74125e-10
-6.1551e-08
4.67177e-05
-2.37038e-10
-4.5852e-08
4.6754e-05
-9.30482e-11
-3.59169e-08
4.67808e-05
-1.12953e-10
-2.66811e-08
4.67985e-05
-2.18455e-10
-1.76701e-08
4.68105e-05
-2.83307e-10
-1.1763e-08
4.68202e-05
-2.61184e-10
-9.42937e-09
4.68297e-05
-1.74686e-10
-9.2569e-09
4.68401e-05
-1.40221e-10
-1.01167e-08
4.68526e-05
-1.69371e-10
-1.23463e-08
4.68672e-05
-9.99293e-11
-1.46297e-08
4.68827e-05
-8.99681e-12
-1.55442e-08
4.68982e-05
5.02447e-11
-1.55829e-08
4.69141e-05
4.48288e-11
-1.58048e-08
4.69314e-05
-4.00203e-11
-1.7149e-08
4.69506e-05
-9.10331e-11
-1.89839e-08
4.69715e-05
-1.17506e-10
-2.06521e-08
4.69937e-05
-1.01129e-10
-2.20744e-08
4.70174e-05
6.24878e-11
-2.35302e-08
4.7043e-05
2.9071e-10
-2.55502e-08
4.70708e-05
4.10594e-10
-2.77497e-08
4.71002e-05
4.50254e-10
-2.93759e-08
4.71304e-05
3.91698e-10
-3.02507e-08
4.71606e-05
1.16251e-10
-3.03382e-08
4.71909e-05
-4.17199e-10
-3.03845e-08
4.72216e-05
-8.75202e-10
-3.07308e-08
4.72527e-05
-1.05489e-09
-3.10358e-08
4.72844e-05
-9.44511e-10
-3.14971e-08
-5.03878e-10
-3.20603e-08
5.05504e-05
-1.54132e-08
8.73103e-06
4.53413e-05
3.78236e-10
5.2005e-06
4.28037e-05
4.51193e-09
2.52888e-06
4.22943e-05
2.31783e-09
5.04177e-07
4.28856e-05
1.7515e-09
-5.95994e-07
4.38072e-05
9.42618e-10
-9.24228e-07
4.46682e-05
9.85453e-10
-8.62841e-07
4.53443e-05
8.40109e-10
-6.77529e-07
4.58314e-05
6.07478e-10
-4.88332e-07
4.61616e-05
6.70458e-10
-3.31335e-07
4.63765e-05
6.29084e-10
-2.16246e-07
4.6515e-05
4.22512e-10
-1.39554e-07
4.66053e-05
2.46685e-10
-9.11397e-08
4.66677e-05
2.02782e-10
-6.27867e-08
4.67144e-05
2.82512e-10
-4.69216e-08
4.67509e-05
3.439e-10
-3.67486e-08
4.6778e-05
1.32998e-10
-2.72809e-08
4.6796e-05
3.41407e-11
-1.84448e-08
4.68083e-05
4.53153e-11
-1.26462e-08
4.68182e-05
5.27193e-11
-1.01256e-08
4.68278e-05
1.22594e-10
-9.8107e-09
4.68382e-05
1.86321e-10
-1.06089e-08
4.68506e-05
1.53508e-10
-1.27032e-08
4.68652e-05
1.44042e-10
-1.49099e-08
4.68807e-05
1.25846e-10
-1.57141e-08
4.68963e-05
9.90197e-11
-1.57538e-08
4.69124e-05
1.00298e-10
-1.61259e-08
4.69299e-05
8.51625e-11
-1.75883e-08
4.69492e-05
6.67388e-11
-1.94339e-08
4.69701e-05
6.68422e-11
-2.10457e-08
4.69923e-05
7.33743e-11
-2.23497e-08
4.70158e-05
1.26211e-10
-2.36319e-08
4.70414e-05
2.37935e-10
-2.55277e-08
4.70693e-05
3.18439e-10
-2.77686e-08
4.7099e-05
2.96013e-10
-2.94442e-08
4.71295e-05
1.28708e-10
-3.02447e-08
4.71601e-05
-2.22253e-10
-3.02328e-08
4.71907e-05
-6.2061e-10
-3.04311e-08
4.72217e-05
-7.84422e-10
-3.10533e-08
4.72529e-05
-6.30528e-10
-3.16752e-08
4.72845e-05
-3.04799e-10
-3.2245e-08
-4.19769e-11
-3.26262e-08
5.0571e-05
-2.28642e-08
8.6797e-06
4.53551e-05
5.70285e-09
5.21156e-06
4.28082e-05
5.47197e-09
2.5465e-06
4.22939e-05
2.75935e-09
5.13703e-07
4.28846e-05
2.66527e-09
-5.92305e-07
4.38076e-05
2.03088e-09
-9.242e-07
4.46696e-05
1.44603e-09
-8.62087e-07
4.53464e-05
1.2533e-09
-6.76721e-07
4.5834e-05
1.1839e-09
-4.87931e-07
4.61645e-05
6.7138e-10
-3.3051e-07
4.63795e-05
6.40526e-10
-2.1529e-07
4.6518e-05
6.32584e-10
-1.39004e-07
4.66084e-05
6.15243e-10
-9.09078e-08
4.66706e-05
3.5367e-10
-6.22111e-08
4.67172e-05
1.51966e-10
-4.61205e-08
4.67537e-05
9.08127e-11
-3.59987e-08
4.67808e-05
2.16171e-10
-2.71124e-08
4.67987e-05
3.28616e-10
-1.83854e-08
4.68107e-05
3.1549e-10
-1.23692e-08
4.68203e-05
2.97194e-10
-9.75124e-09
4.68296e-05
2.97845e-10
-9.35511e-09
4.68397e-05
2.25345e-10
-1.00784e-08
4.68521e-05
4.60817e-11
-1.22031e-08
4.68667e-05
-7.89707e-11
-1.45241e-08
4.68823e-05
-1.10699e-10
-1.54416e-08
4.6898e-05
-5.20353e-11
-1.55608e-08
4.69139e-05
1.31857e-11
-1.59108e-08
4.69314e-05
-5.51583e-11
-1.72598e-08
4.69508e-05
-1.59414e-10
-1.90988e-08
4.69718e-05
-2.02668e-10
-2.07755e-08
4.69943e-05
-1.45717e-10
-2.21959e-08
4.7018e-05
1.72689e-11
-2.36375e-08
4.70436e-05
2.37403e-10
-2.5617e-08
4.70714e-05
4.5096e-10
-2.7872e-08
4.71008e-05
4.67314e-10
-2.95335e-08
4.71311e-05
3.25273e-10
-3.03809e-08
4.71613e-05
5.5419e-11
-3.04818e-08
4.71916e-05
-4.51468e-10
-3.05037e-08
4.72223e-05
-8.45635e-10
-3.07203e-08
4.72534e-05
-8.45328e-10
-3.09346e-08
4.72851e-05
-5.75687e-10
-3.13884e-08
-1.3057e-10
-3.20915e-08
5.05986e-05
1.0897e-08
8.61087e-06
4.53688e-05
-6.83719e-09
5.24343e-06
4.28148e-05
-9.90705e-10
2.56099e-06
4.22952e-05
-8.16851e-10
5.22938e-07
4.28849e-05
-5.17694e-10
-5.87238e-07
4.38084e-05
-3.28643e-10
-9.21286e-07
4.46712e-05
-1.94116e-10
-8.60663e-07
4.53485e-05
-2.1014e-10
-6.75297e-07
4.58363e-05
-2.78912e-10
-4.86049e-07
4.6167e-05
1.95395e-11
-3.30168e-07
4.63821e-05
-7.6991e-12
-2.14687e-07
4.65205e-05
-5.27231e-11
-1.38026e-07
4.66107e-05
-1.19346e-10
-8.96219e-08
4.66729e-05
-8.21466e-11
-6.15323e-08
4.67194e-05
-7.57491e-11
-4.59299e-08
4.67557e-05
-1.77957e-11
-3.599e-08
4.67825e-05
1.68578e-11
-2.66031e-08
4.68003e-05
2.02985e-11
-1.75809e-08
4.68122e-05
3.2567e-11
-1.17042e-08
4.68218e-05
7.0537e-11
-9.28016e-09
4.68312e-05
9.9061e-11
-9.11793e-09
4.68416e-05
4.46671e-11
-1.00752e-08
4.68541e-05
-1.17657e-10
-1.23173e-08
4.68688e-05
-2.46437e-10
-1.46157e-08
4.68842e-05
-2.55506e-10
-1.54256e-08
4.68997e-05
-1.41104e-10
-1.54224e-08
4.69155e-05
-2.69429e-11
-1.5753e-08
4.69328e-05
-1.0374e-10
-1.71923e-08
4.6952e-05
-3.22795e-10
-1.90309e-08
4.6973e-05
-4.00924e-10
-2.0718e-08
4.69952e-05
-2.68581e-10
-2.21321e-08
4.70188e-05
-6.1056e-11
-2.34791e-08
4.70442e-05
1.31296e-10
-2.53335e-08
4.70719e-05
2.90315e-10
-2.74699e-08
4.71013e-05
3.60653e-10
-2.92129e-08
4.71315e-05
3.47828e-10
-3.01945e-08
4.71617e-05
1.69445e-10
-3.03368e-08
4.7192e-05
-3.6345e-10
-3.04502e-08
4.72228e-05
-8.74681e-10
-3.07858e-08
4.7254e-05
-9.91536e-10
-3.1081e-08
4.72857e-05
-7.74335e-10
-3.1524e-08
-2.9711e-10
-3.19436e-08
5.05722e-05
-1.29417e-08
8.69487e-06
4.53559e-05
7.93418e-09
5.2026e-06
4.2811e-05
2.70407e-09
2.54173e-06
4.22965e-05
8.25748e-10
5.12602e-07
4.28865e-05
5.36579e-10
-5.91721e-07
4.38088e-05
2.77566e-10
-9.23093e-07
4.46705e-05
1.4565e-10
-8.61532e-07
4.53472e-05
1.75182e-10
-6.76557e-07
4.58349e-05
2.08082e-10
-4.87818e-07
4.61653e-05
-1.8994e-10
-3.30297e-07
4.63802e-05
-1.02409e-10
-2.1509e-07
4.65186e-05
-8.3789e-12
-1.38763e-07
4.6609e-05
5.08592e-11
-9.07219e-08
4.66714e-05
-2.47377e-11
-6.22318e-08
4.67181e-05
-7.63451e-11
-4.63568e-08
4.67546e-05
-6.8053e-11
-3.62134e-08
4.67816e-05
4.99326e-11
-2.70084e-08
4.67996e-05
1.26204e-10
-1.81632e-08
4.68116e-05
1.19194e-10
-1.2241e-08
4.68214e-05
9.47801e-11
-9.70146e-09
4.68309e-05
4.6078e-11
-9.40702e-09
4.68414e-05
-4.40035e-11
-1.02309e-08
4.68538e-05
-1.50539e-10
-1.24115e-08
4.68684e-05
-1.97766e-10
-1.47565e-08
4.68838e-05
-1.30292e-10
-1.56477e-08
4.68993e-05
5.96938e-12
-1.56708e-08
4.69152e-05
3.54167e-11
-1.59259e-08
4.69325e-05
-8.37704e-11
-1.73411e-08
4.69518e-05
-2.38836e-10
-1.92989e-08
4.69726e-05
-2.84775e-10
-2.09266e-08
4.69947e-05
-2.35705e-10
-2.20339e-08
4.70179e-05
-2.99818e-11
-2.32588e-08
4.7043e-05
1.86116e-10
-2.51889e-08
4.70705e-05
2.1522e-10
-2.7419e-08
4.71e-05
-9.14081e-11
-2.89891e-08
4.71307e-05
-4.81216e-10
-2.97512e-08
4.71616e-05
-6.4313e-10
-3.00271e-08
4.71925e-05
-4.85149e-10
-3.08424e-08
4.72237e-05
-1.35769e-10
-3.19879e-08
4.72551e-05
9.69205e-11
-3.24741e-08
4.72867e-05
5.42024e-11
-3.24666e-08
-1.09357e-10
-3.22367e-08
5.05959e-05
1.2552e-08
8.62184e-06
4.53659e-05
-7.48565e-09
5.24645e-06
4.28145e-05
-2.2966e-09
2.55705e-06
4.22966e-05
-9.42046e-10
5.19369e-07
4.28866e-05
-6.68561e-10
-5.89503e-07
4.381e-05
-3.19301e-10
-9.22827e-07
4.46725e-05
-1.40225e-10
-8.61714e-07
4.53495e-05
-1.94151e-10
-6.76076e-07
4.5837e-05
-3.40339e-10
-4.86707e-07
4.61676e-05
-1.13913e-10
-3.30701e-07
4.63825e-05
-1.20805e-10
-2.1512e-07
4.65207e-05
-1.70497e-10
-1.38379e-07
4.66108e-05
-2.51702e-10
-8.99418e-08
4.66729e-05
-1.08401e-10
-6.18298e-08
4.67194e-05
-8.05175e-11
-4.61406e-08
4.67557e-05
-9.49806e-12
-3.61351e-08
4.67825e-05
3.14027e-11
-2.67495e-08
4.68002e-05
1.08832e-11
-1.77536e-08
4.68121e-05
1.76374e-11
-1.18895e-08
4.68218e-05
2.96989e-11
-9.46921e-09
4.68313e-05
-1.50512e-12
-9.33056e-09
4.68417e-05
-6.75975e-11
-1.02932e-08
4.68542e-05
-1.46523e-10
-1.25146e-08
4.68689e-05
-2.25719e-10
-1.47669e-08
4.68843e-05
-1.27579e-10
-1.55301e-08
4.68996e-05
9.45689e-11
-1.54933e-08
4.69153e-05
2.12381e-10
-1.58479e-08
4.69325e-05
2.35752e-11
-1.728e-08
4.69518e-05
-3.44432e-10
-1.91076e-08
4.69728e-05
-5.22336e-10
-2.07387e-08
4.69951e-05
-4.0573e-10
-2.21061e-08
4.70186e-05
-4.85842e-11
-2.34868e-08
4.70439e-05
2.33159e-10
-2.53715e-08
4.70715e-05
2.29119e-10
-2.75441e-08
4.71008e-05
-1.70305e-11
-2.93423e-08
4.71311e-05
-4.10197e-10
-3.02732e-08
4.71614e-05
-5.54566e-10
-3.03987e-08
4.71919e-05
-3.73351e-10
-3.05535e-08
4.72226e-05
-4.87638e-11
-3.09152e-08
4.72537e-05
2.46049e-11
-3.10698e-08
4.72853e-05
-2.6606e-10
-3.1275e-08
-5.20423e-10
-3.17383e-08
5.05723e-05
-1.25259e-08
8.69604e-06
4.53561e-05
7.9101e-09
5.20177e-06
4.28116e-05
2.55561e-09
2.54031e-06
4.22971e-05
8.76273e-10
5.12466e-07
4.28868e-05
5.45608e-10
-5.91631e-07
4.3809e-05
2.83593e-10
-9.22911e-07
4.46706e-05
6.06364e-11
-8.61316e-07
4.53473e-05
1.17031e-10
-6.76481e-07
4.5835e-05
1.62891e-10
-4.8791e-07
4.61654e-05
-2.61811e-10
-3.30338e-07
4.63802e-05
-1.28584e-10
-2.15043e-07
4.65184e-05
-1.62109e-11
-1.38718e-07
4.66087e-05
6.50077e-11
-9.07145e-08
4.66709e-05
3.286e-11
-6.21311e-08
4.67173e-05
-5.45564e-11
-4.61021e-08
4.67534e-05
-5.71837e-11
-3.58218e-08
4.678e-05
3.3669e-11
-2.65972e-08
4.67977e-05
-2.48616e-11
-1.77775e-08
4.68098e-05
-5.34458e-11
-1.20428e-08
4.68196e-05
-6.37669e-12
-9.77221e-09
4.68295e-05
-4.7714e-11
-9.66625e-09
4.68401e-05
-9.13118e-11
-1.05569e-08
4.68528e-05
-6.86883e-11
-1.27278e-08
4.68675e-05
-3.16323e-11
-1.50081e-08
4.68828e-05
1.03774e-10
-1.56708e-08
4.6898e-05
2.14537e-10
-1.54104e-08
4.69137e-05
1.40644e-10
-1.55461e-08
4.6931e-05
-1.08431e-10
-1.71241e-08
4.69504e-05
-3.12325e-10
-1.93886e-08
4.69715e-05
-2.84828e-10
-2.12722e-08
4.69937e-05
-1.54418e-10
-2.24455e-08
4.7017e-05
-3.30192e-11
-2.33746e-08
4.70422e-05
9.32269e-11
-2.50785e-08
4.70698e-05
1.56889e-10
-2.74471e-08
4.70992e-05
4.57924e-11
-2.94374e-08
4.71297e-05
-4.05434e-10
-3.04358e-08
4.71604e-05
-7.59379e-10
-3.04276e-08
4.71911e-05
-6.24737e-10
-3.04455e-08
4.7222e-05
1.42995e-11
-3.09758e-08
4.7253e-05
4.57519e-10
-3.14819e-08
4.72844e-05
1.65206e-10
-3.18741e-08
-5.21558e-10
-3.19892e-08
5.05958e-05
1.27302e-08
8.62219e-06
4.53657e-05
-7.53631e-09
5.24661e-06
4.28143e-05
-2.41778e-09
2.557e-06
4.22966e-05
-9.06302e-10
5.19298e-07
4.28867e-05
-6.33778e-10
-5.89607e-07
4.381e-05
-3.61678e-10
-9.2287e-07
4.46725e-05
-1.6494e-10
-8.61754e-07
4.53495e-05
-2.202e-10
-6.76136e-07
4.58369e-05
-3.36033e-10
-4.86798e-07
4.61674e-05
2.70961e-12
-3.30805e-07
4.63823e-05
-4.74499e-11
-2.15181e-07
4.65204e-05
-6.78195e-11
-1.38436e-07
4.66105e-05
-1.02633e-10
-8.99609e-08
4.66725e-05
-6.8792e-12
-6.18304e-08
4.67188e-05
5.40306e-11
-4.60272e-08
4.67547e-05
9.52474e-11
-3.58691e-08
4.67812e-05
4.48652e-11
-2.64455e-08
4.67986e-05
-3.88788e-11
-1.75446e-08
4.68103e-05
-8.53703e-11
-1.17224e-08
4.68198e-05
-5.79638e-11
-9.33196e-09
4.68291e-05
-3.31259e-11
-9.29748e-09
4.68395e-05
-4.39534e-11
-1.02876e-08
4.6852e-05
-7.65113e-11
-1.25e-08
4.68667e-05
-8.92183e-11
-1.47729e-08
4.68822e-05
-3.97627e-11
-1.5493e-08
4.68977e-05
4.12866e-11
-1.53834e-08
4.69135e-05
1.03968e-10
-1.57623e-08
4.6931e-05
2.40358e-11
-1.74848e-08
4.69504e-05
-1.87514e-10
-1.94837e-08
4.69714e-05
-3.20433e-10
-2.09355e-08
4.69935e-05
-2.84455e-10
-2.20008e-08
4.70168e-05
-1.4333e-10
-2.31881e-08
4.7042e-05
-4.9747e-11
-2.50551e-08
4.70696e-05
-1.36201e-10
-2.72615e-08
4.70991e-05
-2.68175e-10
-2.91179e-08
4.71296e-05
-3.01862e-10
-3.05515e-08
4.71602e-05
-1.80033e-10
-3.11368e-08
4.71907e-05
8.11445e-11
-3.12019e-08
4.72213e-05
3.75845e-10
-3.10492e-08
4.72522e-05
4.31715e-10
-3.08576e-08
4.72835e-05
1.24783e-10
-3.12837e-08
-4.70068e-10
-3.20468e-08
5.05723e-05
-1.22261e-08
8.69596e-06
4.53561e-05
7.99693e-09
5.20167e-06
4.28116e-05
2.46142e-09
2.54027e-06
4.22971e-05
8.52517e-10
5.12474e-07
4.28868e-05
4.79521e-10
-5.91584e-07
4.3809e-05
1.78226e-10
-9.22925e-07
4.46706e-05
6.32589e-11
-8.61328e-07
4.53472e-05
1.10009e-10
-6.76525e-07
4.58348e-05
1.67627e-10
-4.87929e-07
4.61652e-05
-1.25692e-10
-3.30301e-07
4.638e-05
-1.02719e-10
-2.15045e-07
4.65183e-05
-8.32515e-12
-1.38677e-07
4.66086e-05
1.38466e-10
-9.0641e-08
4.66708e-05
2.2488e-11
-6.20932e-08
4.67172e-05
1.70128e-11
-4.60226e-08
4.67533e-05
-4.69243e-13
-3.57304e-08
4.67799e-05
-1.36702e-11
-2.65205e-08
4.67976e-05
-8.78944e-12
-1.78133e-08
4.68096e-05
-1.28849e-11
-1.21589e-08
4.68195e-05
-5.95198e-11
-9.77939e-09
4.68292e-05
-7.8547e-11
-9.63692e-09
4.68399e-05
-5.53827e-11
-1.05316e-08
4.68525e-05
-2.46066e-11
-1.26985e-08
4.68672e-05
6.36429e-11
-1.4949e-08
4.68825e-05
1.25275e-10
-1.56093e-08
4.68977e-05
1.2597e-10
-1.53726e-08
4.69133e-05
5.79491e-11
-1.55328e-08
4.69307e-05
-8.89789e-11
-1.71585e-08
4.69502e-05
-1.30919e-10
-1.94918e-08
4.69713e-05
-6.9676e-11
-2.1358e-08
4.69935e-05
-6.56612e-11
-2.24499e-08
4.70168e-05
-1.06398e-10
-2.33627e-08
4.7042e-05
-9.81773e-11
-2.50924e-08
4.70694e-05
-1.28143e-11
-2.7518e-08
4.70987e-05
1.60547e-11
-2.9471e-08
4.7129e-05
-1.36291e-10
-3.04121e-08
4.71596e-05
-2.96242e-10
-3.04097e-08
4.71902e-05
-2.97544e-10
-3.03141e-08
4.72211e-05
-1.0199e-10
-3.04919e-08
4.72522e-05
1.47104e-10
-3.08179e-08
4.72837e-05
2.16079e-10
-3.15658e-08
5.96711e-11
-3.26158e-08
5.05958e-05
1.35369e-08
8.62168e-06
4.53656e-05
-7.26077e-09
5.2465e-06
4.28142e-05
-2.55017e-09
2.55705e-06
4.22965e-05
-1.12327e-09
5.19324e-07
4.28866e-05
-7.94155e-10
-5.89578e-07
4.38099e-05
-5.04105e-10
-9.22809e-07
4.46723e-05
-2.3588e-10
-8.61738e-07
4.53492e-05
-2.68241e-10
-6.76104e-07
4.58367e-05
-3.9983e-10
-4.86739e-07
4.61673e-05
-1.78531e-11
-3.30786e-07
4.63822e-05
-1.26004e-10
-2.15124e-07
4.65204e-05
-1.50985e-10
-1.38374e-07
4.66104e-05
-1.0347e-10
-8.99113e-08
4.66724e-05
-2.2655e-11
-6.17235e-08
4.67186e-05
5.06119e-11
-4.5939e-08
4.67546e-05
7.08983e-11
-3.58208e-08
4.67811e-05
-2.74427e-11
-2.64108e-08
4.67986e-05
-8.15827e-11
-1.75055e-08
4.68103e-05
-1.09992e-10
-1.16632e-08
4.68197e-05
-1.09066e-10
-9.28598e-09
4.6829e-05
-7.19463e-11
-9.26891e-09
4.68394e-05
-5.1298e-11
-1.02663e-08
4.68519e-05
-8.5004e-11
-1.247e-08
4.68667e-05
-7.72986e-11
-1.47535e-08
4.68822e-05
-5.14815e-11
-1.54695e-08
4.68976e-05
-1.75443e-11
-1.53545e-08
4.69134e-05
5.68846e-11
-1.57521e-08
4.69308e-05
6.6232e-11
-1.74728e-08
4.69503e-05
-4.20319e-11
-1.94658e-08
4.69713e-05
-1.9223e-10
-2.09125e-08
4.69935e-05
-2.93357e-10
-2.19419e-08
4.70167e-05
-2.727e-10
-2.31299e-08
4.70419e-05
-2.37141e-10
-2.50241e-08
4.70694e-05
-2.32154e-10
-2.72759e-08
4.70989e-05
-1.26473e-10
-2.9254e-08
4.71295e-05
4.96589e-11
-3.0647e-08
4.71601e-05
2.70365e-10
-3.11609e-08
4.71906e-05
3.56372e-10
-3.12406e-08
4.72213e-05
2.22223e-10
-3.10477e-08
4.72521e-05
1.23341e-10
-3.07646e-08
4.72835e-05
1.09386e-10
-3.11553e-08
4.06741e-11
-3.22133e-08
5.05725e-05
-9.53131e-09
8.6938e-06
4.53564e-05
8.38054e-09
5.20148e-06
4.28116e-05
1.92381e-09
2.54097e-06
4.22968e-05
1.73804e-10
5.13112e-07
4.28865e-05
1.32597e-11
-5.91216e-07
4.38087e-05
-8.91219e-11
-9.22737e-07
4.46702e-05
-1.2675e-10
-8.6131e-07
4.53469e-05
-1.49998e-11
-6.76504e-07
4.58345e-05
3.58337e-11
-4.87891e-07
4.6165e-05
-2.92947e-10
-3.30316e-07
4.63798e-05
-2.67115e-10
-2.15004e-07
4.65182e-05
-1.25726e-10
-1.38639e-07
4.66084e-05
1.05333e-10
-9.0632e-08
4.66707e-05
6.99026e-11
-6.20446e-08
4.6717e-05
2.87401e-11
-4.60215e-08
4.67531e-05
-5.74418e-11
-3.5739e-08
4.67797e-05
-1.00867e-10
-2.64947e-08
4.67974e-05
-9.31854e-11
-1.7791e-08
4.68095e-05
-7.45094e-11
-1.21316e-08
4.68193e-05
-1.06541e-10
-9.74107e-09
4.6829e-05
-1.18751e-10
-9.61767e-09
4.68397e-05
-8.11995e-11
-1.0535e-08
4.68523e-05
-3.89291e-11
-1.26918e-08
4.6867e-05
5.78257e-11
-1.49678e-08
4.68823e-05
1.20328e-10
-1.56052e-08
4.68975e-05
9.90673e-11
-1.53364e-08
4.69131e-05
2.92795e-11
-1.55122e-08
4.69304e-05
-3.53744e-11
-1.71303e-08
4.69499e-05
-1.83198e-11
-1.94398e-08
4.6971e-05
3.157e-11
-2.13562e-08
4.69933e-05
-6.36177e-11
-2.24672e-08
4.70166e-05
-2.45059e-10
-2.33484e-08
4.70417e-05
-3.23017e-10
-2.50619e-08
4.70691e-05
-2.29844e-10
-2.73962e-08
4.70984e-05
5.99343e-11
-2.94274e-08
4.71289e-05
2.29764e-10
-3.05437e-08
4.71596e-05
9.81101e-11
-3.04969e-08
4.71904e-05
-1.69928e-10
-3.03524e-08
4.72215e-05
-3.28624e-10
-3.05512e-08
4.72526e-05
-1.60889e-10
-3.08338e-08
4.7284e-05
2.88957e-10
-3.15707e-08
5.94502e-10
-3.25777e-08
5.05906e-05
9.69624e-09
8.6334e-06
4.53609e-05
-8.26209e-09
5.2474e-06
4.2812e-05
-1.98287e-09
2.55347e-06
4.22961e-05
-2.99432e-10
5.15983e-07
4.28868e-05
-1.23702e-10
-5.91281e-07
4.38101e-05
2.06749e-11
-9.23438e-07
4.46723e-05
1.99974e-10
-8.62148e-07
4.53489e-05
8.52208e-11
-6.76387e-07
4.58363e-05
-1.06582e-10
-4.86982e-07
4.61666e-05
1.54896e-10
-3.30993e-07
4.63814e-05
4.75133e-11
-2.15335e-07
4.65195e-05
-1.22348e-11
-1.3851e-07
4.66095e-05
4.284e-11
-9.00694e-08
4.66715e-05
1.66948e-10
-6.18501e-08
4.67178e-05
2.17859e-10
-4.61135e-08
4.67537e-05
1.86827e-10
-3.6009e-08
4.67802e-05
3.46225e-11
-2.65164e-08
4.67976e-05
-2.03201e-11
-1.76329e-08
4.68093e-05
-3.62607e-11
-1.18216e-08
4.68188e-05
-4.54112e-11
-9.42725e-09
4.68282e-05
-1.90379e-11
-9.39451e-09
4.68385e-05
2.54816e-12
-1.03643e-08
4.6851e-05
-1.00235e-13
-1.25413e-08
4.68658e-05
2.74925e-11
-1.48422e-08
4.68813e-05
3.28825e-11
-1.55394e-08
4.68967e-05
1.95582e-11
-1.54088e-08
4.69125e-05
7.76272e-11
-1.58306e-08
4.693e-05
1.59383e-10
-1.75254e-08
4.69494e-05
1.60941e-10
-1.95396e-08
4.69704e-05
2.21344e-11
-2.10011e-08
4.69925e-05
-2.11471e-10
-2.19993e-08
4.70158e-05
-3.85423e-10
-2.31749e-08
4.7041e-05
-4.55666e-10
-2.50756e-08
4.70686e-05
-4.70715e-10
-2.72865e-08
4.70981e-05
-1.75829e-10
-2.91839e-08
4.71287e-05
4.17101e-10
-3.06597e-08
4.71593e-05
7.46586e-10
-3.12446e-08
4.71899e-05
6.56909e-10
-3.14644e-08
4.72207e-05
1.95367e-11
-3.11878e-08
4.72516e-05
-3.42991e-10
-3.07284e-08
4.72831e-05
-1.61026e-11
-3.10542e-08