/*--------------------------------*- C++ -*----------------------------------*\
  =========                 |
  \\      /  F ield         | OpenFOAM: The Open Source CFD Toolbox
   \\    /   O peration     | Website:  https://openfoam.org
    \\  /    A nd           | Version:  9
     \\/     M anipulation  |
\*---------------------------------------------------------------------------*/
FoamFile
{
    format      ascii;
    class       volVectorField;
    location    "1200";
    object      U;
}
// * * * * * * * * * * * * * * * * * * * * * * * * * * * * * * * * * * * * * //

dimensions      [0 1 -1 0 0 0 0];

internalField   nonuniform List<vector> 
82350
(
(5.33712 0.0314324 -6.9594e-05)
(4.72938 0.0259221 -5.37556e-05)
(4.35373 0.00992238 -2.39912e-05)
(4.21542 -0.00170061 -1.15526e-05)
(4.24303 -0.00671892 1.33246e-06)
(4.33325 -0.00657006 2.34371e-06)
(4.42775 -0.00541443 4.86258e-06)
(4.50535 -0.00415411 5.2957e-06)
(4.56296 -0.00304721 5.71706e-07)
(4.60292 -0.00215818 -2.10696e-06)
(4.62915 -0.0014989 -2.12846e-06)
(4.64593 -0.00104139 2.8638e-08)
(4.65675 -0.000737199 6.41998e-06)
(4.664 -0.000544031 3.11365e-06)
(4.66925 -0.000425628 2.89641e-07)
(4.67335 -0.000346459 1.20305e-06)
(4.67655 -0.000281968 -9.08328e-07)
(4.67874 -0.000226722 -2.14087e-06)
(4.68013 -0.000183432 -1.43361e-06)
(4.68113 -0.000152872 -2.1998e-07)
(4.68206 -0.000133736 -2.1046e-07)
(4.68304 -0.00012254 -1.97089e-06)
(4.68417 -0.000119857 -7.40267e-06)
(4.68554 -0.00012129 -4.87084e-06)
(4.68707 -0.00011863 8.51075e-06)
(4.68861 -0.000112917 1.64436e-05)
(4.69016 -0.000108149 1.52673e-05)
(4.6918 -0.000107429 1.58289e-06)
(4.69364 -0.000108354 -1.69566e-05)
(4.69567 -0.000108966 -2.07001e-05)
(4.69782 -0.000109178 -1.81291e-05)
(4.70009 -0.000109578 -1.28554e-05)
(4.7025 -0.000113192 -6.37197e-06)
(4.70514 -0.000117943 3.58457e-06)
(4.708 -0.000122317 1.50395e-05)
(4.71101 -0.000123673 2.0391e-05)
(4.71408 -0.000122888 1.28204e-05)
(4.71715 -0.000123462 -7.38732e-06)
(4.72023 -0.000125446 -3.17337e-05)
(4.72334 -0.000125385 -4.27253e-05)
(4.72647 -0.000123712 -3.52134e-05)
(4.72965 -0.000122379 -1.42334e-05)
(5.33963 0.0431341 -0.00012782)
(4.73135 0.0254929 0.000206609)
(4.35436 0.00674826 0.000138806)
(4.21529 -0.00376619 1.12472e-05)
(4.2428 -0.00764572 4.77793e-07)
(4.33315 -0.00691918 -9.21945e-06)
(4.42777 -0.00556619 -5.64031e-06)
(4.50546 -0.00419741 -5.33902e-06)
(4.56309 -0.00305222 -9.35946e-06)
(4.60307 -0.00215982 -6.57458e-06)
(4.62933 -0.0014991 -1.95621e-06)
(4.64612 -0.00103998 8.82151e-08)
(4.65692 -0.000733579 2.37287e-06)
(4.66415 -0.000541174 -3.90031e-06)
(4.66937 -0.00042392 -4.23458e-06)
(4.67345 -0.000345498 4.98942e-07)
(4.67665 -0.000280914 1.98474e-07)
(4.67882 -0.00022498 -3.58166e-06)
(4.68019 -0.000181386 -4.71628e-06)
(4.68118 -0.000151528 -3.30686e-06)
(4.6821 -0.000133095 -3.24569e-07)
(4.68308 -0.000122296 -1.41724e-06)
(4.68421 -0.000119843 -9.28021e-06)
(4.6856 -0.000121193 -9.84461e-06)
(4.68714 -0.000118753 -5.43441e-06)
(4.68869 -0.000113061 1.36349e-06)
(4.69022 -0.000107641 2.47826e-06)
(4.69184 -0.000106195 -4.10131e-06)
(4.69365 -0.000106785 -1.08783e-05)
(4.69567 -0.000107535 -1.35889e-05)
(4.69785 -0.000108622 -1.23177e-05)
(4.70014 -0.000109925 -6.4859e-06)
(4.70258 -0.000113645 4.13775e-06)
(4.70524 -0.000118252 2.2673e-05)
(4.70811 -0.000122696 3.84515e-05)
(4.71111 -0.000124642 4.04302e-05)
(4.71414 -0.0001244 2.46571e-05)
(4.71715 -0.000124041 -2.51119e-05)
(4.72019 -0.000123422 -5.91231e-05)
(4.72328 -0.000121438 -6.06903e-05)
(4.72642 -0.000120628 -4.56039e-05)
(4.72962 -0.000121595 -2.01021e-05)
(5.33735 0.031378 -0.00141859)
(4.72918 0.0259457 -0.000337963)
(4.35342 0.00993455 0.000341904)
(4.2151 -0.00169965 0.000289365)
(4.24276 -0.00671988 0.000255056)
(4.33309 -0.00657029 0.00019438)
(4.42764 -0.00541512 0.000152058)
(4.50527 -0.00415428 0.00012775)
(4.56288 -0.00304722 0.000109963)
(4.60283 -0.00215835 9.00394e-05)
(4.62908 -0.0014996 7.92954e-05)
(4.64588 -0.00104274 6.39105e-05)
(4.65671 -0.00073827 5.14398e-05)
(4.66396 -0.00054423 3.68269e-05)
(4.66918 -0.000424724 2.89727e-05)
(4.67324 -0.000344953 2.76593e-05)
(4.67641 -0.000280661 2.26063e-05)
(4.67857 -0.000225471 2.01425e-05)
(4.67994 -0.000182445 2.0189e-05)
(4.68094 -0.00015264 1.93569e-05)
(4.68189 -0.000134137 1.857e-05)
(4.68288 -0.00012316 1.71305e-05)
(4.68402 -0.000120335 1.32892e-05)
(4.68541 -0.000121689 1.25358e-05)
(4.68695 -0.000119292 1.20306e-05)
(4.68851 -0.000113616 1.03582e-05)
(4.69006 -0.000108377 8.61228e-06)
(4.6917 -0.00010733 6.4765e-06)
(4.69352 -0.00010831 5.21959e-06)
(4.69554 -0.00010891 4.00977e-06)
(4.69771 -0.000109298 2.00631e-06)
(4.7 -0.000110282 2.96813e-06)
(4.70244 -0.000113876 7.77251e-06)
(4.7051 -0.000118758 1.31443e-05)
(4.70797 -0.000124104 1.55791e-05)
(4.71097 -0.000126362 6.33479e-06)
(4.71399 -0.000124892 -1.50598e-05)
(4.71699 -0.000122866 -3.28771e-05)
(4.72003 -0.000121693 -3.62273e-05)
(4.72312 -0.000121475 -2.0909e-05)
(4.72627 -0.000122551 1.20484e-06)
(4.72948 -0.000123475 1.5349e-05)
(5.33567 0.0318211 0.000416817)
(4.72696 0.0259386 0.000142721)
(4.35244 0.00988245 -4.29519e-05)
(4.21503 -0.00173841 -0.000142632)
(4.24291 -0.00674486 -0.000120637)
(4.33313 -0.00657804 -0.000109537)
(4.42753 -0.0054214 -8.14771e-05)
(4.50508 -0.00415808 -6.16484e-05)
(4.56263 -0.003049 -5.48419e-05)
(4.60254 -0.00216162 -2.63639e-05)
(4.62876 -0.00150276 -8.36777e-06)
(4.64554 -0.00104418 -1.67695e-05)
(4.65634 -0.000738219 -2.81005e-05)
(4.6636 -0.000545318 -2.55467e-05)
(4.66884 -0.000427316 -1.7211e-05)
(4.67293 -0.000348002 -4.75665e-06)
(4.67611 -0.00028257 -9.71031e-07)
(4.67829 -0.000226502 -9.09154e-07)
(4.67968 -0.000183258 -1.79869e-06)
(4.68071 -0.000153694 -3.45493e-06)
(4.68166 -0.000135141 -4.01228e-06)
(4.68265 -0.000123918 -4.95879e-06)
(4.68379 -0.000120935 -8.80376e-06)
(4.68517 -0.000122175 -1.11472e-05)
(4.68671 -0.000119573 -1.21423e-05)
(4.68826 -0.000113517 -1.15588e-05)
(4.6898 -0.000107974 -1.02369e-05)
(4.69144 -0.00010698 -9.91979e-06)
(4.69327 -0.000108159 -8.95954e-06)
(4.6953 -0.000109014 -6.61834e-06)
(4.69747 -0.0001096 -3.15217e-06)
(4.69976 -0.000110508 1.70952e-06)
(4.7022 -0.000114111 1.07196e-05)
(4.70485 -0.000118595 1.78199e-05)
(4.70772 -0.00012354 1.83197e-05)
(4.71073 -0.000125251 1.46275e-05)
(4.71379 -0.000123702 -1.84436e-06)
(4.71684 -0.000122274 -3.02232e-05)
(4.71993 -0.000122816 -4.46246e-05)
(4.72306 -0.000123422 -4.57091e-05)
(4.72622 -0.000124123 -3.71215e-05)
(4.72944 -0.000124579 -1.64536e-05)
(5.3395 0.0431053 -1.8459e-05)
(4.73094 0.0255002 -1.4259e-06)
(4.35396 0.0067692 1.12441e-05)
(4.21482 -0.0037535 3.43884e-06)
(4.24237 -0.00764325 2.50161e-07)
(4.33282 -0.00691846 -3.6541e-06)
(4.42751 -0.00556607 -3.20472e-06)
(4.50526 -0.00419676 -1.18372e-06)
(4.56291 -0.00305164 3.56405e-06)
(4.60287 -0.00215847 7.85174e-06)
(4.62911 -0.00149861 8.09937e-06)
(4.64589 -0.00103984 1.76527e-06)
(4.65669 -0.000733454 -6.52891e-06)
(4.66394 -0.000541155 -1.32782e-05)
(4.66917 -0.000423619 -1.19406e-05)
(4.67322 -0.00034463 -4.35845e-06)
(4.67638 -0.000279886 4.23793e-06)
(4.67852 -0.000224372 7.80851e-06)
(4.67987 -0.000181279 5.95519e-06)
(4.68086 -0.000151813 1.35468e-06)
(4.68179 -0.000133695 -1.01749e-06)
(4.68277 -0.000122604 -3.3709e-07)
(4.6839 -0.000119624 2.56049e-08)
(4.68528 -0.000120754 -5.46824e-07)
(4.68683 -0.000118371 -1.98048e-06)
(4.68842 -0.000113168 -3.52567e-06)
(4.69 -0.000108426 -4.33516e-06)
(4.69167 -0.000107503 -5.18694e-06)
(4.69351 -0.000108307 -4.20706e-06)
(4.69554 -0.000108875 -1.90547e-06)
(4.6977 -0.000109348 -1.36363e-06)
(4.69998 -0.000110363 -1.40893e-06)
(4.70241 -0.000114339 1.61376e-07)
(4.70505 -0.000119234 4.06388e-06)
(4.70789 -0.000123842 9.47424e-06)
(4.71085 -0.000125145 1.27486e-05)
(4.71385 -0.000123406 1.12005e-05)
(4.71686 -0.000120981 -1.38813e-06)
(4.71992 -0.000120071 -1.69089e-05)
(4.72305 -0.000119726 -1.86056e-05)
(4.72624 -0.00012055 -3.89322e-06)
(4.72949 -0.000121453 1.42167e-05)
(5.3357 0.0316952 -0.000518309)
(4.727 0.0259455 -0.000149364)
(4.35244 0.00989965 8.04501e-05)
(4.21499 -0.00172475 0.000164738)
(4.24286 -0.00673521 0.000138761)
(4.3331 -0.00657391 0.00011942)
(4.42752 -0.00541939 8.63958e-05)
(4.50507 -0.00415739 6.63203e-05)
(4.56262 -0.00304888 6.44238e-05)
(4.60252 -0.00216118 4.19496e-05)
(4.62872 -0.0015022 2.7377e-05)
(4.6455 -0.00104373 2.37172e-05)
(4.65632 -0.000738112 2.18643e-05)
(4.66359 -0.000545519 1.27191e-05)
(4.66884 -0.00042727 4.09311e-06)
(4.67293 -0.000347673 2.53956e-06)
(4.67612 -0.000282338 9.08674e-06)
(4.67829 -0.000226577 1.11106e-05)
(4.67968 -0.000183512 9.30288e-06)
(4.68071 -0.000153874 6.99576e-06)
(4.68166 -0.000135093 6.27756e-06)
(4.68266 -0.000123696 7.67675e-06)
(4.68379 -0.000120699 9.09011e-06)
(4.68516 -0.000121923 8.94634e-06)
(4.6867 -0.000119423 7.82272e-06)
(4.68825 -0.000113514 5.58044e-06)
(4.6898 -0.000108096 2.83793e-06)
(4.69144 -0.000107106 1.07409e-06)
(4.69328 -0.000108391 -1.87057e-07)
(4.69531 -0.00010946 -1.61033e-06)
(4.69749 -0.00010998 -4.94485e-06)
(4.69978 -0.000110942 -1.20111e-05)
(4.70222 -0.000114505 -1.7068e-05)
(4.70487 -0.000118909 -2.00855e-05)
(4.70773 -0.000123663 -1.86265e-05)
(4.71073 -0.000125517 -1.07964e-05)
(4.71377 -0.000124012 8.62342e-06)
(4.7168 -0.000122227 3.1236e-05)
(4.71987 -0.000121961 4.06578e-05)
(4.72301 -0.00012173 4.09965e-05)
(4.7262 -0.000122472 3.403e-05)
(4.72943 -0.000125038 1.62356e-05)
(5.3374 0.0313853 0.00115781)
(4.72919 0.0259398 0.00033046)
(4.35338 0.00993491 -0.000274956)
(4.215 -0.00169792 -0.000263301)
(4.24265 -0.00671742 -0.000231481)
(4.333 -0.00656936 -0.000178357)
(4.42757 -0.00541421 -0.000140559)
(4.50522 -0.00415357 -0.000119028)
(4.56283 -0.00304673 -0.000100802)
(4.60277 -0.00215768 -7.85472e-05)
(4.629 -0.00149881 -6.59111e-05)
(4.6458 -0.00104196 -5.62759e-05)
(4.65665 -0.000737592 -5.29967e-05)
(4.66392 -0.000543889 -4.34905e-05)
(4.66916 -0.000424427 -3.39218e-05)
(4.67322 -0.000344411 -2.49035e-05)
(4.67638 -0.000280051 -1.53544e-05)
(4.67852 -0.000224913 -1.23208e-05)
(4.67989 -0.000182162 -1.44977e-05)
(4.68091 -0.000152705 -1.40577e-05)
(4.68187 -0.000134254 -1.26906e-05)
(4.68286 -0.000123083 -1.21523e-05)
(4.68399 -0.000120024 -1.1338e-05)
(4.68537 -0.00012122 -1.37307e-05)
(4.68691 -0.000118813 -1.39158e-05)
(4.68847 -0.000113231 -1.19416e-05)
(4.69003 -0.000108128 -1.05218e-05)
(4.69168 -0.000107229 -9.63936e-06)
(4.69351 -0.000108199 -1.03526e-05)
(4.69552 -0.000108754 -1.08315e-05)
(4.69768 -0.000109174 -1.06178e-05)
(4.69997 -0.000110207 -1.41911e-05)
(4.70241 -0.000114101 -1.78192e-05)
(4.70508 -0.000118772 -1.96078e-05)
(4.70796 -0.000123613 -1.75575e-05)
(4.71096 -0.000125636 -3.72066e-06)
(4.71398 -0.000124453 1.82235e-05)
(4.71698 -0.000122985 3.36587e-05)
(4.72002 -0.000122183 3.9114e-05)
(4.7231 -0.000121628 3.53741e-05)
(4.72625 -0.000121748 1.43741e-05)
(4.72946 -0.000122155 -1.99576e-05)
(5.3394 0.0431316 -0.000491989)
(4.73085 0.0254955 -0.000195965)
(4.35392 0.00675763 2.97089e-05)
(4.21492 -0.00376338 9.37074e-05)
(4.24251 -0.00764598 9.40445e-05)
(4.33294 -0.00691916 6.95975e-05)
(4.4276 -0.00556597 5.58495e-05)
(4.50532 -0.00419668 4.8915e-05)
(4.56295 -0.00305137 3.94993e-05)
(4.6029 -0.0021587 3.49489e-05)
(4.62913 -0.00149846 3.41269e-05)
(4.64592 -0.00103947 2.81109e-05)
(4.65674 -0.000733087 1.50905e-05)
(4.664 -0.000541077 1.59973e-05)
(4.66925 -0.000424054 1.60765e-05)
(4.67333 -0.000345623 1.3633e-05)
(4.67651 -0.000280885 1.50356e-05)
(4.67867 -0.000225018 1.67326e-05)
(4.68005 -0.000181693 1.56352e-05)
(4.68105 -0.000152194 1.49419e-05)
(4.68199 -0.000133835 1.33251e-05)
(4.68297 -0.000122608 1.22353e-05)
(4.68409 -0.000119733 1.45865e-05)
(4.68546 -0.00012085 1.19605e-05)
(4.687 -0.00011847 7.96488e-06)
(4.68855 -0.000112934 5.01193e-06)
(4.6901 -0.000107731 3.53045e-06)
(4.69173 -0.000106494 4.34356e-06)
(4.69355 -0.000107255 4.46984e-06)
(4.69557 -0.000107898 3.97439e-06)
(4.69774 -0.000108702 2.52008e-06)
(4.70003 -0.000110011 -4.02335e-06)
(4.70247 -0.000114151 -1.381e-05)
(4.70514 -0.000118857 -2.19763e-05)
(4.70802 -0.000123522 -2.65962e-05)
(4.71103 -0.000125373 -2.53631e-05)
(4.71406 -0.000124432 -1.50662e-05)
(4.71708 -0.000123015 1.59271e-05)
(4.72011 -0.000122339 4.92428e-05)
(4.7232 -0.000121985 6.04686e-05)
(4.72634 -0.000122365 5.83986e-05)
(4.72954 -0.00012248 3.86042e-05)
(5.33571 0.0316448 -0.000392577)
(4.72713 0.025937 9.66707e-06)
(4.3526 0.0098954 0.000155332)
(4.21511 -0.00172098 0.000132)
(4.24295 -0.00672923 0.000102817)
(4.33315 -0.00657147 8.80054e-05)
(4.42757 -0.00541837 6.06761e-05)
(4.50512 -0.00415722 4.37617e-05)
(4.56266 -0.00304909 4.44652e-05)
(4.60257 -0.00216175 2.01076e-05)
(4.62879 -0.00150305 8.46184e-06)
(4.64556 -0.00104462 1.20189e-05)
(4.65639 -0.000738907 1.71123e-05)
(4.66365 -0.000545899 1.60248e-05)
(4.66891 -0.000427885 7.53557e-06)
(4.67301 -0.00034859 -2.82285e-06)
(4.67621 -0.000283171 1.90193e-06)
(4.67841 -0.000227559 8.81637e-06)
(4.67982 -0.000184255 9.85142e-06)
(4.68084 -0.000154183 8.62303e-06)
(4.6818 -0.000135585 5.28313e-06)
(4.68278 -0.000124386 2.10503e-06)
(4.6839 -0.000121085 2.07954e-06)
(4.68526 -0.000121839 -2.77179e-06)
(4.68679 -0.000118961 -7.14543e-06)
(4.68835 -0.000113353 -6.99192e-06)
(4.68991 -0.000108715 -5.74375e-06)
(4.69157 -0.000108006 -2.19421e-06)
(4.69342 -0.000108828 1.67566e-06)
(4.69544 -0.000109281 2.94816e-06)
(4.69759 -0.000109537 2.0881e-06)
(4.69987 -0.000110361 -3.13362e-06)
(4.70231 -0.000114207 -1.32521e-05)
(4.70499 -0.000118897 -1.90608e-05)
(4.70788 -0.00012387 -2.01147e-05)
(4.71092 -0.000125508 -1.32864e-05)
(4.71399 -0.00012386 7.57533e-06)
(4.71704 -0.000122425 3.32045e-05)
(4.72011 -0.000123072 4.30252e-05)
(4.72322 -0.000124562 4.09682e-05)
(4.72636 -0.000125704 2.73876e-05)
(4.72955 -0.000124863 9.58e-06)
(5.33732 0.0315023 0.00138191)
(4.72922 0.0259253 0.000296605)
(4.3535 0.00990414 -0.000382386)
(4.21515 -0.0017155 -0.000308318)
(4.24279 -0.00672734 -0.000259431)
(4.33311 -0.00657208 -0.000197465)
(4.42767 -0.00541606 -0.000153691)
(4.5053 -0.0041548 -0.000125331)
(4.5629 -0.00304747 -0.000107512)
(4.60286 -0.00215902 -8.34687e-05)
(4.62908 -0.00149975 -6.99916e-05)
(4.64587 -0.00104212 -5.6397e-05)
(4.6567 -0.00073772 -4.74965e-05)
(4.66395 -0.000543845 -3.60867e-05)
(4.66919 -0.00042486 -2.70958e-05)
(4.67329 -0.000345939 -2.29609e-05)
(4.67649 -0.000282141 -1.85636e-05)
(4.67869 -0.000227231 -1.75347e-05)
(4.68008 -0.000184041 -1.84511e-05)
(4.68107 -0.000153533 -1.94374e-05)
(4.68199 -0.000133991 -2.05529e-05)
(4.68295 -0.000122292 -1.99994e-05)
(4.68405 -0.000119087 -1.54869e-05)
(4.68541 -0.000120404 -1.04332e-05)
(4.68695 -0.000118053 -6.23631e-06)
(4.68851 -0.000112792 -4.35123e-06)
(4.69008 -0.000108096 -4.8439e-06)
(4.69173 -0.000106997 -4.74579e-06)
(4.69357 -0.000107682 -4.34386e-06)
(4.6956 -0.000108297 -4.51669e-06)
(4.69778 -0.000109053 -7.38551e-06)
(4.70008 -0.000110428 -1.25312e-05)
(4.70254 -0.000114321 -1.62156e-05)
(4.70521 -0.000119086 -1.59697e-05)
(4.70808 -0.000123997 -8.05314e-06)
(4.71109 -0.000126074 4.99032e-06)
(4.71413 -0.000125118 1.894e-05)
(4.71714 -0.000123998 2.76084e-05)
(4.72019 -0.0001227 2.99538e-05)
(4.72328 -0.000121222 2.03721e-05)
(4.72642 -0.00012136 5.50399e-06)
(4.72961 -0.000121981 -3.18589e-06)
(5.33971 0.0431258 0.000128274)
(4.73155 0.0254909 -0.000209685)
(4.35451 0.00675259 -0.000121576)
(4.21535 -0.00376187 2.19955e-05)
(4.24282 -0.00764417 1.34636e-05)
(4.33316 -0.00691845 1.20109e-05)
(4.42779 -0.00556597 9.22067e-06)
(4.50549 -0.00419739 9.03176e-06)
(4.56312 -0.0030521 8.66138e-06)
(4.60311 -0.00215976 5.83578e-06)
(4.62935 -0.00149874 1.76153e-06)
(4.64613 -0.00103952 2.9168e-07)
(4.65694 -0.000733535 1.21738e-06)
(4.66418 -0.000541212 5.51972e-06)
(4.66942 -0.000424216 7.28516e-06)
(4.6735 -0.000345816 3.9878e-06)
(4.67668 -0.000280773 -1.81594e-06)
(4.67885 -0.000224919 -5.11761e-06)
(4.68023 -0.000181482 -5.03574e-06)
(4.68122 -0.000151276 -7.01215e-06)
(4.68214 -0.000132853 -9.52878e-06)
(4.68312 -0.000122244 -4.73324e-06)
(4.68424 -0.000119652 9.10249e-06)
(4.68562 -0.000121002 1.66532e-05)
(4.68715 -0.000118215 1.58769e-05)
(4.6887 -0.000112416 1.01364e-05)
(4.69024 -0.000107522 4.96698e-06)
(4.69187 -0.000106599 1.0684e-05)
(4.6937 -0.000107531 2.02491e-05)
(4.69572 -0.000108331 2.21032e-05)
(4.69789 -0.000109085 1.75624e-05)
(4.70017 -0.000109999 9.709e-06)
(4.7026 -0.000113401 -3.50951e-06)
(4.70526 -0.000118041 -2.49004e-05)
(4.70813 -0.00012294 -3.89764e-05)
(4.71113 -0.000125028 -4.09551e-05)
(4.71417 -0.000124174 -2.66509e-05)
(4.71719 -0.000123098 2.05252e-05)
(4.72024 -0.000122609 5.94696e-05)
(4.72333 -0.00012228 6.40506e-05)
(4.72648 -0.000122463 4.8064e-05)
(4.72966 -0.000121933 1.41234e-05)
(5.33712 0.0314325 4.14773e-05)
(4.72941 0.0259232 1.02411e-05)
(4.35372 0.00992346 1.66003e-06)
(4.21542 -0.00170116 6.51814e-06)
(4.24303 -0.00671955 -5.3547e-06)
(4.33326 -0.00657027 -4.19813e-06)
(4.42776 -0.00541476 -2.77111e-06)
(4.50537 -0.00415451 -2.48393e-06)
(4.56299 -0.00304759 -1.98101e-06)
(4.60295 -0.00215858 -6.44537e-09)
(4.62916 -0.00149915 -7.06466e-07)
(4.64593 -0.00104132 -1.07215e-06)
(4.65676 -0.000737022 -7.80921e-08)
(4.66402 -0.000543923 1.59668e-06)
(4.66928 -0.000425724 2.52239e-06)
(4.67338 -0.000346548 1.29599e-06)
(4.67658 -0.000281832 -1.04557e-06)
(4.67877 -0.000226445 -1.5832e-06)
(4.68016 -0.000183517 -9.85392e-07)
(4.68117 -0.000153519 -1.29171e-06)
(4.68211 -0.000134318 -1.31165e-06)
(4.6831 -0.000122744 4.77215e-07)
(4.68422 -0.00011974 4.27414e-06)
(4.68559 -0.00012131 7.61367e-06)
(4.68711 -0.000118957 6.14675e-06)
(4.68866 -0.00011321 1.40612e-06)
(4.6902 -0.000108131 -3.54788e-07)
(4.69185 -0.000107321 3.46447e-06)
(4.69368 -0.000108605 1.03679e-05)
(4.6957 -0.000109161 1.29184e-05)
(4.69784 -0.000108708 7.85052e-06)
(4.7001 -0.000108982 -2.04423e-06)
(4.70249 -0.000113122 -9.46518e-06)
(4.70512 -0.00011804 -8.84276e-06)
(4.70799 -0.000121951 1.70757e-06)
(4.71102 -0.000123047 1.4994e-05)
(4.71412 -0.000122423 2.25724e-05)
(4.71721 -0.000123612 2.46819e-05)
(4.72031 -0.000127094 2.2517e-05)
(4.72344 -0.00012846 1.68595e-05)
(4.72658 -0.000126811 1.1836e-05)
(4.72976 -0.000123651 7.69715e-06)
(5.33949 0.0431645 6.9738e-06)
(4.73118 0.0254933 -2.29222e-05)
(4.35435 0.00672893 -1.8978e-05)
(4.21544 -0.00377997 -3.06116e-06)
(4.243 -0.00765112 4.29921e-06)
(4.33333 -0.00692251 3.73548e-06)
(4.42793 -0.00556857 2.62788e-06)
(4.5056 -0.00419951 2.09566e-06)
(4.5632 -0.00305404 3.17819e-06)
(4.60317 -0.0021614 8.38856e-06)
(4.62939 -0.00150012 7.99404e-06)
(4.64615 -0.0010406 6.44592e-06)
(4.65695 -0.000734562 8.01154e-06)
(4.66419 -0.000542126 6.10711e-06)
(4.66942 -0.000424871 4.63733e-06)
(4.6735 -0.000346341 2.29364e-06)
(4.67668 -0.000281249 -2.30935e-06)
(4.67885 -0.000225385 -6.0225e-06)
(4.68022 -0.000182027 -7.6632e-06)
(4.68121 -0.000152056 -7.51698e-06)
(4.68214 -0.00013378 -5.00802e-06)
(4.68312 -0.000123102 1.69696e-06)
(4.68425 -0.000120348 9.07231e-06)
(4.68563 -0.000121438 1.15541e-05)
(4.68716 -0.00011854 8.31125e-06)
(4.6887 -0.000112738 -3.50476e-07)
(4.69023 -0.000107884 -2.96338e-06)
(4.69185 -0.000106972 6.16226e-06)
(4.69368 -0.000107716 1.83135e-05)
(4.6957 -0.000108346 2.14935e-05)
(4.69787 -0.000108993 1.56034e-05)
(4.70015 -0.000109892 -8.21116e-08)
(4.70258 -0.000113383 -9.55789e-06)
(4.70522 -0.000118284 -5.45013e-06)
(4.70808 -0.000123438 1.28607e-05)
(4.71109 -0.000125335 2.54627e-05)
(4.71414 -0.000124279 2.4673e-05)
(4.71717 -0.000123386 8.0915e-06)
(4.72022 -0.000123169 -8.204e-06)
(4.72331 -0.000122232 -9.01666e-06)
(4.72644 -0.000121253 5.05562e-06)
(4.72963 -0.000120978 1.7913e-05)
(5.33711 0.0314353 -1.76995e-06)
(4.72942 0.0259207 -9.72646e-06)
(4.35378 0.00991938 -5.06471e-06)
(4.21547 -0.00170106 3.07543e-06)
(4.24307 -0.00671861 3.44242e-06)
(4.33329 -0.0065697 1.38188e-06)
(4.42778 -0.00541425 2.05085e-06)
(4.50539 -0.00415431 2.76587e-06)
(4.563 -0.00304765 3.00732e-06)
(4.60295 -0.00215862 8.35777e-06)
(4.62916 -0.00149907 7.49006e-06)
(4.64592 -0.00104119 4.58156e-06)
(4.65673 -0.000736862 5.2855e-06)
(4.66399 -0.000543636 4.12527e-06)
(4.66922 -0.000424954 4.09622e-06)
(4.67328 -0.000345229 3.89645e-06)
(4.67644 -0.000280398 2.14816e-06)
(4.6786 -0.000225157 3.10554e-06)
(4.67997 -0.000182639 3.15015e-06)
(4.68099 -0.000153275 1.85913e-06)
(4.68195 -0.000134852 2.77516e-06)
(4.68296 -0.000123837 4.87382e-06)
(4.68411 -0.00012114 4.91696e-06)
(4.68549 -0.000122479 4.1965e-06)
(4.68702 -0.00011917 -4.09958e-06)
(4.68854 -0.000112325 -1.23319e-05)
(4.69006 -0.000106603 -1.11343e-05)
(4.69169 -0.000106314 1.6266e-06)
(4.69353 -0.000108723 1.67068e-05)
(4.69557 -0.000110637 1.9283e-05)
(4.69774 -0.00011039 1.43999e-05)
(4.7 -0.000109818 3.2441e-06)
(4.70241 -0.000112756 -1.31306e-05)
(4.70505 -0.000117967 -1.87753e-05)
(4.70792 -0.000123712 -9.51241e-06)
(4.71094 -0.000126115 2.42712e-05)
(4.71402 -0.000124554 4.11835e-05)
(4.71708 -0.000122906 3.64085e-05)
(4.72015 -0.000123372 1.166e-05)
(4.72324 -0.000124153 -1.97763e-06)
(4.72636 -0.000123876 1.32546e-05)
(4.72952 -0.000121853 2.83184e-05)
(5.33948 0.0431657 -4.31225e-06)
(4.73116 0.0254934 -6.44355e-06)
(4.35432 0.00672827 1.46695e-06)
(4.21543 -0.00378052 5.2984e-06)
(4.243 -0.00765152 3.83561e-06)
(4.33334 -0.00692266 2.8445e-06)
(4.42794 -0.00556856 3.26016e-06)
(4.5056 -0.00419976 2.57779e-06)
(4.56321 -0.0030545 2.63568e-06)
(4.60315 -0.0021616 5.17345e-06)
(4.62937 -0.0015004 3.79944e-06)
(4.64613 -0.00104095 -1.27232e-07)
(4.65692 -0.000734584 -8.00364e-08)
(4.66416 -0.000542243 -1.77949e-06)
(4.66937 -0.000424546 -2.03503e-06)
(4.67342 -0.000345349 -2.08076e-06)
(4.67656 -0.000280317 -1.65293e-06)
(4.6787 -0.000224683 6.46031e-07)
(4.68005 -0.000181396 5.72832e-07)
(4.68102 -0.000151643 -8.30517e-07)
(4.68194 -0.000133575 2.00758e-07)
(4.68291 -0.000122894 2.37449e-06)
(4.68403 -0.00012028 3.23853e-06)
(4.68541 -0.000121506 3.04668e-06)
(4.68695 -0.00011845 -2.75523e-07)
(4.6885 -0.000112213 -4.45689e-06)
(4.69004 -0.000107501 -2.9877e-06)
(4.69168 -0.000107657 4.83268e-06)
(4.69353 -0.000109155 1.21291e-05)
(4.69557 -0.000109164 1.34967e-05)
(4.69773 -0.000108719 9.47986e-06)
(4.69998 -0.000109208 4.98416e-06)
(4.70239 -0.000112456 3.89313e-06)
(4.70502 -0.000117204 7.79444e-06)
(4.7079 -0.000121999 1.51987e-05)
(4.71093 -0.000125943 2.20444e-05)
(4.71401 -0.000127512 2.10918e-05)
(4.71705 -0.000126556 -2.42264e-06)
(4.72009 -0.000124013 -3.12642e-05)
(4.72316 -0.000121415 -3.50657e-05)
(4.72627 -0.000121096 -3.96942e-06)
(4.72944 -0.000122035 4.04968e-05)
(5.33711 0.0314349 -1.43929e-05)
(4.72942 0.0259201 -2.00469e-05)
(4.35377 0.00991913 -1.25507e-05)
(4.21547 -0.00170108 -6.74644e-06)
(4.24308 -0.00671842 6.54659e-07)
(4.33329 -0.00656968 5.26072e-06)
(4.42778 -0.00541429 4.64037e-06)
(4.50538 -0.00415443 3.18187e-06)
(4.56299 -0.00304779 4.03433e-06)
(4.60293 -0.00215847 2.88886e-06)
(4.62914 -0.00149897 3.25071e-06)
(4.6459 -0.00104107 3.07398e-06)
(4.65672 -0.000736581 3.37642e-07)
(4.66398 -0.000543465 8.16663e-07)
(4.66921 -0.000424685 -5.29533e-08)
(4.67327 -0.00034486 -1.34182e-06)
(4.67643 -0.000280295 5.44867e-07)
(4.67858 -0.000225336 2.47204e-06)
(4.67996 -0.000182747 2.88298e-06)
(4.68097 -0.000153207 3.60543e-06)
(4.68193 -0.000134837 3.57253e-06)
(4.68293 -0.00012382 2.68537e-06)
(4.68408 -0.000121092 2.3073e-06)
(4.68546 -0.000122273 -3.42945e-07)
(4.68699 -0.00011896 -3.81581e-06)
(4.68851 -0.000112197 -4.63948e-06)
(4.69002 -0.000106535 -4.0309e-06)
(4.69166 -0.000106421 1.50619e-06)
(4.69351 -0.000108927 7.96804e-06)
(4.69556 -0.00011081 9.64262e-06)
(4.69773 -0.000110526 8.59261e-06)
(4.69999 -0.000109959 5.83007e-06)
(4.70239 -0.000112793 1.29515e-06)
(4.70502 -0.000117996 1.86589e-07)
(4.70787 -0.000123509 3.09314e-06)
(4.71088 -0.000125972 9.69575e-06)
(4.71394 -0.000124992 1.4272e-05)
(4.717 -0.000123165 1.14359e-05)
(4.72006 -0.000121486 -1.0702e-06)
(4.72315 -0.000120416 -1.01888e-05)
(4.72628 -0.000121259 -2.99003e-06)
(4.72947 -0.000124177 8.86202e-06)
(5.33949 0.0431638 -1.21506e-05)
(4.73116 0.0254935 1.25675e-05)
(4.35431 0.00672904 2.11157e-05)
(4.21542 -0.00378007 1.00935e-05)
(4.24299 -0.00765135 4.03409e-06)
(4.33332 -0.00692246 3.56401e-06)
(4.42792 -0.00556856 1.39471e-06)
(4.50559 -0.00419975 -1.36827e-06)
(4.56318 -0.00305433 1.21179e-06)
(4.60314 -0.00216152 -1.08715e-06)
(4.62936 -0.00150021 1.24466e-06)
(4.64612 -0.00104071 2.17769e-06)
(4.65692 -0.000734471 -3.36428e-06)
(4.66414 -0.000541911 -1.70943e-06)
(4.66936 -0.000424201 -2.24815e-06)
(4.67341 -0.000345151 -3.67423e-06)
(4.67655 -0.000280097 -1.22551e-06)
(4.67869 -0.000224493 9.67685e-07)
(4.68004 -0.00018128 1.55401e-06)
(4.68101 -0.000151576 2.72788e-06)
(4.68192 -0.000133529 2.78493e-06)
(4.68289 -0.000122854 1.16543e-06)
(4.68402 -0.000120176 1.82249e-06)
(4.68541 -0.000121451 -1.32328e-07)
(4.68694 -0.000118343 -2.30911e-06)
(4.68849 -0.0001121 -2.51885e-06)
(4.69003 -0.00010745 -2.0407e-06)
(4.69167 -0.000107618 9.12411e-07)
(4.69352 -0.000109091 4.35379e-06)
(4.69556 -0.000109091 5.8732e-06)
(4.69772 -0.00010858 7.17483e-06)
(4.69998 -0.00010899 7.6519e-06)
(4.70238 -0.000112267 7.88886e-06)
(4.70501 -0.000117303 8.09144e-06)
(4.70788 -0.000122419 6.85524e-06)
(4.71092 -0.000126332 4.24215e-06)
(4.714 -0.000127731 -1.13265e-06)
(4.71705 -0.000126799 -6.04005e-06)
(4.72009 -0.000124198 -8.46916e-06)
(4.72316 -0.000121028 -1.00838e-05)
(4.72625 -0.000120067 -8.81149e-06)
(4.72946 -0.000122601 -2.03329e-06)
(5.33714 0.0314013 -0.000142454)
(4.72945 0.0259171 -7.88183e-05)
(4.35379 0.00992501 -1.53855e-06)
(4.21546 -0.00169435 3.04647e-05)
(4.24304 -0.00671329 2.98968e-05)
(4.33325 -0.00656886 2.53002e-05)
(4.42775 -0.00541392 1.9319e-05)
(4.50535 -0.00415432 1.42504e-05)
(4.56296 -0.00304764 1.47906e-05)
(4.60291 -0.00215857 1.22624e-05)
(4.62912 -0.00149894 1.32463e-05)
(4.64589 -0.00104091 1.10736e-05)
(4.65671 -0.000736533 3.77028e-06)
(4.66396 -0.000543273 1.63335e-06)
(4.66919 -0.0004246 1.72693e-06)
(4.67326 -0.000344889 2.43725e-06)
(4.67641 -0.000280205 5.16175e-06)
(4.67857 -0.000225237 6.13994e-06)
(4.67994 -0.000182663 5.85847e-06)
(4.68095 -0.000153063 6.38976e-06)
(4.68191 -0.00013474 5.97464e-06)
(4.68291 -0.000123854 4.4155e-06)
(4.68406 -0.000121083 4.33067e-06)
(4.68545 -0.000122347 2.12101e-06)
(4.68697 -0.000118999 -5.73481e-07)
(4.68849 -0.000112078 -9.24668e-07)
(4.69 -0.000106433 -7.70669e-07)
(4.69163 -0.000106323 7.42284e-07)
(4.69348 -0.000108836 3.36072e-06)
(4.69553 -0.000110843 6.6351e-06)
(4.6977 -0.000110522 1.1485e-05)
(4.69996 -0.000109968 1.43032e-05)
(4.70236 -0.000112677 1.4634e-05)
(4.70499 -0.000117899 1.085e-05)
(4.70784 -0.000123595 -3.71978e-06)
(4.71086 -0.000126307 -1.37122e-05)
(4.71393 -0.000125225 -1.35687e-05)
(4.71701 -0.000123189 -6.96634e-06)
(4.72009 -0.00012166 2.09947e-06)
(4.72319 -0.000120458 2.44179e-06)
(4.72631 -0.000120988 -3.53072e-06)
(4.7295 -0.000123808 -8.12687e-06)
(5.33913 0.0432016 -2.96881e-06)
(4.73056 0.0254907 -2.49383e-06)
(4.35394 0.0067101 2.65725e-06)
(4.21534 -0.00379612 5.93248e-06)
(4.24301 -0.00765739 7.02463e-06)
(4.33335 -0.00692491 6.22013e-06)
(4.42793 -0.00556998 2.81529e-06)
(4.50557 -0.00420066 -2.24712e-07)
(4.56314 -0.00305508 2.52079e-06)
(4.60308 -0.00216217 4.03545e-06)
(4.62928 -0.00150093 5.76859e-06)
(4.64603 -0.00104112 5.01754e-06)
(4.65683 -0.000734927 -3.01148e-06)
(4.66405 -0.00054232 -6.52002e-06)
(4.66927 -0.000424791 -6.52068e-06)
(4.67333 -0.000345856 -3.72307e-06)
(4.67646 -0.000280545 1.73078e-06)
(4.6786 -0.000224924 4.55249e-06)
(4.67995 -0.00018177 4.76091e-06)
(4.68092 -0.000152024 5.16344e-06)
(4.68184 -0.000133944 4.67246e-06)
(4.68281 -0.000123211 2.4977e-06)
(4.68393 -0.000120458 1.02759e-06)
(4.68532 -0.000121728 -2.08438e-06)
(4.68685 -0.000118583 -3.94898e-06)
(4.6884 -0.000112276 -3.07463e-06)
(4.68994 -0.000107654 -3.16997e-06)
(4.69158 -0.000107827 -4.11273e-06)
(4.69343 -0.000109243 -4.37944e-06)
(4.69547 -0.000109398 -1.17022e-06)
(4.69763 -0.000108924 6.50679e-06)
(4.69989 -0.000109184 1.34286e-05)
(4.70229 -0.000112401 1.73878e-05)
(4.70492 -0.000117201 1.50482e-05)
(4.7078 -0.000122004 4.64537e-06)
(4.71083 -0.000126015 -6.74255e-06)
(4.71391 -0.00012804 -7.53161e-06)
(4.71697 -0.000127671 4.08936e-06)
(4.72002 -0.000124758 1.60808e-05)
(4.7231 -0.0001207 1.02422e-05)
(4.7262 -0.000119448 -2.53546e-05)
(4.72942 -0.000122737 -4.82919e-05)
(5.33714 0.0314011 0.000130064)
(4.72945 0.025917 6.96644e-05)
(4.35378 0.00992531 -4.04095e-06)
(4.21544 -0.00169396 -3.58662e-05)
(4.24303 -0.00671296 -3.09982e-05)
(4.33325 -0.00656858 -2.42522e-05)
(4.42775 -0.00541383 -2.15644e-05)
(4.50536 -0.00415434 -1.89963e-05)
(4.56296 -0.00304759 -1.38829e-05)
(4.60292 -0.00215862 -8.82805e-06)
(4.62912 -0.00149887 -6.55932e-06)
(4.64587 -0.00104075 -5.7138e-06)
(4.6567 -0.000736644 -1.09958e-05)
(4.66395 -0.000543442 -1.1937e-05)
(4.6692 -0.000424834 -1.10541e-05)
(4.67326 -0.000345076 -8.93216e-06)
(4.67641 -0.00028021 -5.53402e-06)
(4.67856 -0.000225299 -4.92127e-06)
(4.67994 -0.000182816 -4.0441e-06)
(4.68095 -0.000153142 -1.8834e-06)
(4.68191 -0.000134769 -1.20594e-06)
(4.68292 -0.000123884 -2.2503e-06)
(4.68406 -0.000120992 -2.97554e-06)
(4.68545 -0.00012229 -4.96054e-06)
(4.68697 -0.00011894 -5.17606e-06)
(4.68849 -0.000112088 -3.43511e-06)
(4.69 -0.000106575 -3.7872e-06)
(4.69164 -0.000106511 -6.59729e-06)
(4.69349 -0.000108996 -9.06202e-06)
(4.69554 -0.000110888 -6.85348e-06)
(4.69771 -0.000110613 5.25421e-06)
(4.69998 -0.000110089 2.26264e-05)
(4.70239 -0.000113053 2.92626e-05)
(4.70502 -0.000118135 2.69536e-05)
(4.70787 -0.000123633 -1.80379e-07)
(4.71087 -0.000125785 -4.42694e-05)
(4.71391 -0.000124464 -5.76974e-05)
(4.71695 -0.000122827 -4.3018e-05)
(4.72 -0.000122059 7.95582e-06)
(4.72309 -0.00012131 2.83492e-05)
(4.7262 -0.000121018 8.964e-06)
(4.72938 -0.000121852 -3.3045e-05)
(5.33949 0.0431625 -6.52e-06)
(4.73116 0.0254935 -4.36914e-06)
(4.35431 0.00672969 6.58347e-06)
(4.21541 -0.00377947 7.03565e-06)
(4.24298 -0.00765091 8.09165e-06)
(4.33332 -0.006922 6.86771e-06)