/*--------------------------------*- C++ -*----------------------------------*\
  =========                 |
  \\      /  F ield         | OpenFOAM: The Open Source CFD Toolbox
   \\    /   O peration     | Website:  https://openfoam.org
    \\  /    A nd           | Version:  9
     \\/     M anipulation  |
\*---------------------------------------------------------------------------*/
FoamFile
{
    format      ascii;
    class       volScalarField;
    location    "1200";
    object      omega;
}
// * * * * * * * * * * * * * * * * * * * * * * * * * * * * * * * * * * * * * //

dimensions      [0 0 -1 0 0 0 0];

internalField   nonuniform List<scalar> 
82440
(
6655.29
6659.23
6663.31
6667.52
6671.82
6676.15
6680.48
6684.81
6689.19
6693.62
6698.08
6702.58
6707.11
6711.69
6716.33
6721.04
6725.81
6730.61
6735.43
6740.24
6745.04
6749.84
6754.67
6759.53
6764.43
6769.39
6774.41
6779.49
6784.6
6789.75
6794.95
6800.16
6805.37
6810.57
6815.77
6655.26
6659.21
6663.29
6667.52
6671.83
6676.17
6680.49
6684.8
6689.14
6693.56
6698.03
6702.55
6707.1
6711.68
6716.3
6721
6725.78
6730.58
6735.38
6740.18
6744.98
6749.8
6754.66
6759.54
6764.46
6769.42
6774.43
6779.5
6784.62
6789.79
6794.99
6800.2
6805.4
6810.6
6815.81
6655.14
6659.12
6663.24
6667.48
6671.8
6676.13
6680.44
6684.74
6689.09
6693.5
6697.97
6702.49
6707.03
6711.6
6716.22
6720.93
6725.7
6730.51
6735.33
6740.14
6744.95
6749.77
6754.62
6759.51
6764.44
6769.41
6774.44
6779.52
6784.65
6789.82
6795.02
6800.23
6805.44
6810.64
6815.85
6655.08
6659.04
6663.13
6667.36
6671.67
6676.02
6680.35
6684.68
6689.04
6693.47
6697.95
6702.48
6707.04
6711.62
6716.25
6720.96
6725.73
6730.53
6735.33
6740.13
6744.94
6749.78
6754.65
6759.56
6764.49
6769.47
6774.49
6779.56
6784.68
6789.84
6795.03
6800.23
6805.44
6810.65
6815.85
6655.18
6659.16
6663.24
6667.44
6671.71
6676.03
6680.35
6684.67
6689.03
6693.45
6697.93
6702.44
6706.99
6711.56
6716.19
6720.89
6725.66
6730.46
6735.26
6740.08
6744.9
6749.74
6754.61
6759.51
6764.45
6769.43
6774.46
6779.54
6784.66
6789.82
6795.01
6800.21
6805.41
6810.61
6815.82
6655.05
6658.98
6663.04
6667.27
6671.59
6675.94
6680.27
6684.58
6688.94
6693.37
6697.87
6702.4
6706.95
6711.52
6716.14
6720.85
6725.63
6730.44
6735.25
6740.06
6744.87
6749.7
6754.57
6759.48
6764.42
6769.41
6774.45
6779.53
6784.66
6789.82
6795.01
6800.22
6805.43
6810.63
6815.82
6655.11
6659.09
6663.19
6667.43
6671.73
6676.06
6680.38
6684.7
6689.06
6693.48
6697.96
6702.47
6707.01
6711.59
6716.22
6720.94
6725.71
6730.5
6735.31
6740.12
6744.93
6749.77
6754.63
6759.53
6764.46
6769.44
6774.47
6779.55
6784.67
6789.83
6795.02
6800.23
6805.44
6810.65
6815.85
6655.17
6659.13
6663.22
6667.45
6671.76
6676.1
6680.42
6684.73
6689.08
6693.51
6697.99
6702.51
6707.06
6711.64
6716.26
6720.97
6725.74
6730.54
6735.36
6740.17
6744.98
6749.8
6754.65
6759.54
6764.47
6769.45
6774.47
6779.54
6784.65
6789.81
6795.01
6800.22
6805.43
6810.62
6815.81
6655.15
6659.1
6663.2
6667.45
6671.77
6676.1
6680.42
6684.75
6689.11
6693.54
6698.01
6702.51
6707.05
6711.63
6716.26
6720.98
6725.75
6730.54
6735.32
6740.1
6744.9
6749.72
6754.58
6759.48
6764.42
6769.4
6774.42
6779.49
6784.59
6789.75
6794.93
6800.14
6805.36
6810.56
6815.76
6655.23
6659.16
6663.23
6667.44
6671.75
6676.08
6680.41
6684.73
6689.07
6693.49
6697.95
6702.46
6707
6711.59
6716.22
6720.93
6725.69
6730.47
6735.27
6740.08
6744.89
6749.71
6754.57
6759.48
6764.43
6769.42
6774.45
6779.5
6784.6
6789.74
6794.93
6800.14
6805.35
6810.55
6815.74
6655.28
6659.23
6663.31
6667.53
6671.83
6676.16
6680.48
6684.79
6689.14
6693.55
6698.01
6702.52
6707.06
6711.64
6716.27
6720.98
6725.76
6730.56
6735.36
6740.15
6744.93
6749.74
6754.58
6759.48
6764.44
6769.43
6774.47
6779.55
6784.65
6789.8
6794.97
6800.17
6805.38
6810.57
6815.76
6655.4
6659.33
6663.4
6667.61
6671.92
6676.25
6680.58
6684.9
6689.25
6693.66
6698.11
6702.6
6707.13
6711.7
6716.33
6721.04
6725.81
6730.6
6735.4
6740.21
6745.01
6749.82
6754.65
6759.54
6764.47
6769.46
6774.49
6779.55
6784.64
6789.79
6794.99
6800.2
6805.4
6810.59
6815.77
6655.26
6659.2
6663.27
6667.49
6671.8
6676.15
6680.5
6684.83
6689.19
6693.6
6698.06
6702.57
6707.11
6711.67
6716.29
6720.99
6725.77
6730.57
6735.39
6740.19
6744.99
6749.8
6754.64
6759.54
6764.49
6769.49
6774.52
6779.58
6784.66
6789.79
6794.97
6800.17
6805.38
6810.57
6815.77
6655.12
6659.06
6663.14
6667.38
6671.73
6676.12
6680.51
6684.89
6689.27
6693.69
6698.13
6702.6
6707.11
6711.67
6716.3
6721.01
6725.79
6730.6
6735.42
6740.23
6745.04
6749.86
6754.71
6759.59
6764.52
6769.5
6774.51
6779.56
6784.64
6789.77
6794.95
6800.15
6805.36
6810.55
6815.74
6655.04
6658.97
6663.04
6667.28
6671.63
6676.04
6680.44
6684.82
6689.21
6693.64
6698.1
6702.6
6707.13
6711.7
6716.33
6721.06
6725.85
6730.67
6735.48
6740.28
6745.07
6749.87
6754.7
6759.57
6764.5
6769.48
6774.51
6779.56
6784.63
6789.75
6794.93
6800.12
6805.33
6810.52
6815.7
6655.06
6658.98
6663.03
6667.27
6671.63
6676.04
6680.46
6684.83
6689.22
6693.64
6698.09
6702.58
6707.11
6711.69
6716.32
6721.05
6725.83
6730.65
6735.46
6740.25
6745.04
6749.85
6754.69
6759.57
6764.49
6769.46
6774.47
6779.53
6784.62
6789.75
6794.93
6800.12
6805.31
6810.5
6815.68
6655.05
6658.96
6663.02
6667.25
6671.59
6675.99
6680.4
6684.78
6689.17
6693.6
6698.07
6702.58
6707.13
6711.7
6716.32
6721.02
6725.79
6730.59
6735.4
6740.2
6744.99
6749.8
6754.64
6759.53
6764.47
6769.45
6774.47
6779.54
6784.63
6789.76
6794.93
6800.13
6805.32
6810.51
6815.69
6655.08
6658.98
6663.01
6667.2
6671.53
6675.92
6680.31
6684.68
6689.08
6693.52
6697.99
6702.51
6707.07
6711.67
6716.32
6721.04
6725.81
6730.62
6735.43
6740.24
6745.03
6749.85
6754.7
6759.58
6764.5
6769.46
6774.47
6779.53
6784.63
6789.76
6794.92
6800.11
6805.31
6810.5
6815.69
6655
6658.9
6662.95
6667.17
6671.5
6675.89
6680.28
6684.65
6689.04
6693.48
6697.97
6702.49
6707.04
6711.61
6716.25
6720.97
6725.75
6730.55
6735.35
6740.14
6744.92
6749.73
6754.58
6759.48
6764.42
6769.4
6774.42
6779.47
6784.56
6789.69
6794.86
6800.06
6805.27
6810.46
6815.65
6654.96
6658.89
6662.96
6667.19
6671.55
6675.97
6680.4
6684.81
6689.23
6693.65
6698.09
6702.55
6707.06
6711.64
6716.28
6720.98
6725.74
6730.53
6735.33
6740.13
6744.93
6749.74
6754.59
6759.48
6764.41
6769.39
6774.4
6779.46
6784.54
6789.67
6794.84
6800.04
6805.25
6810.45
6815.65
6655.1
6659.05
6663.13
6667.36
6671.68
6676.04
6680.4
6684.75
6689.13
6693.57
6698.05
6702.57
6707.11
6711.7
6716.34
6721.04
6725.8
6730.58
6735.37
6740.16
6744.94
6749.75
6754.61
6759.51
6764.45
6769.43
6774.43
6779.47
6784.55
6789.67
6794.85
6800.06
6805.29
6810.5
6815.69
6655.26
6659.2
6663.26
6667.46
6671.76
6676.1
6680.46
6684.81
6689.19
6693.62
6698.09
6702.6
6707.14
6711.72
6716.36
6721.06
6725.83
6730.61
6735.4
6740.19
6744.97
6749.78
6754.62
6759.52
6764.46
6769.43
6774.45
6779.5
6784.58
6789.71
6794.89
6800.1
6805.32
6810.54
6815.75
6655.18
6659.11
6663.18
6667.39
6671.69
6676.02
6680.38
6684.74
6689.14
6693.59
6698.07
6702.59
6707.14
6711.73
6716.38
6721.1
6725.86
6730.63
6735.41
6740.18
6744.96
6749.77
6754.61
6759.5
6764.43
6769.4
6774.41
6779.46
6784.55
6789.68
6794.87
6800.09
6805.33
6810.55
6815.75
6655.11
6659.05
6663.12
6667.33
6671.63
6675.97
6680.32
6684.67
6689.07
6693.52
6698.01
6702.54
6707.09
6711.69
6716.36
6721.08
6725.84
6730.61
6735.39
6740.18
6744.96
6749.75
6754.59
6759.47
6764.39
6769.36
6774.36
6779.41
6784.5
6789.65
6794.85
6800.07
6805.3
6810.52
6815.73
6654.98
6658.96
6663.06
6667.3
6671.6
6675.94
6680.28
6684.63
6689.03
6693.47
6697.94
6702.45
6706.99
6711.58
6716.23
6720.94
6725.7
6730.5
6735.31
6740.12
6744.93
6749.74
6754.59
6759.48
6764.41
6769.37
6774.38
6779.43
6784.51
6789.65
6794.84
6800.06
6805.29
6810.5
6815.71
6655
6658.94
6663.01
6667.23
6671.54
6675.89
6680.25
6684.61
6689.02
6693.48
6697.98
6702.5
6707.05
6711.64
6716.29
6721.01
6725.78
6730.57
6735.37
6740.18
6744.98
6749.79
6754.64
6759.52
6764.44
6769.41
6774.42
6779.46
6784.54
6789.67
6794.87
6800.08
6805.3
6810.5
6815.7
6654.97
6658.89
6662.96
6667.18
6671.51
6675.88
6680.26
6684.64
6689.06
6693.51
6697.99
6702.51
6707.07
6711.68
6716.35
6721.08
6725.86
6730.66
6735.47
6740.28
6745.08
6749.88
6754.7
6759.57
6764.48
6769.45
6774.46
6779.52
6784.6
6789.74
6794.92
6800.12
6805.32
6810.52
6815.72
6654.96
6658.89
6662.96
6667.19
6671.52
6675.9
6680.27
6684.64
6689.04
6693.48
6697.97
6702.5
6707.05
6711.65
6716.29
6721.01
6725.79
6730.59
6735.4
6740.21
6745
6749.79
6754.62
6759.5
6764.42
6769.4
6774.43
6779.49
6784.59
6789.73
6794.91
6800.11
6805.3
6810.49
6815.69
6655.05
6658.96
6663.02
6667.24
6671.56
6675.93
6680.3
6684.67
6689.08
6693.53
6698.01
6702.52
6707.07
6711.68
6716.35
6721.09
6725.88
6730.69
6735.5
6740.31
6745.1
6749.9
6754.72
6759.58
6764.49
6769.44
6774.45
6779.49
6784.58
6789.72
6794.9
6800.1
6805.3
6810.5
6815.7
6655.15
6659.07
6663.13
6667.34
6671.66
6676.02
6680.36
6684.7
6689.08
6693.52
6698.02
6702.54
6707.1
6711.68
6716.33
6721.06
6725.85
6730.66
6735.48
6740.29
6745.09
6749.89
6754.72
6759.57
6764.46
6769.4
6774.39
6779.44
6784.54
6789.69
6794.88
6800.08
6805.27
6810.47
6815.68
2904.13
2902.62
2901.31
2900.15
2899.14
2898.25
2897.48
2896.83
2896.3
2895.9
2895.61
2895.45
2895.38
2895.42
2895.53
2895.72
2895.97
2896.27
2896.64
2897.07
2897.57
2898.13
2898.74
2899.41
2900.13
2900.91
2901.75
2902.63
2903.56
2904.52
2905.5
2906.52
2907.57
2908.66
2909.79
2904.16
2902.65
2901.33
2900.17
2899.14
2898.25
2897.49
2896.85
2896.32
2895.9
2895.61
2895.43
2895.38
2895.42
2895.53
2895.7
2895.95
2896.27
2896.65
2897.09
2897.58
2898.13
2898.74
2899.41
2900.14
2900.93
2901.76
2902.64
2903.56
2904.53
2905.52
2906.53
2907.58
2908.66
2909.79
2904.13
2902.62
2901.3
2900.13
2899.11
2898.22
2897.46
2896.81
2896.28
2895.86
2895.58
2895.41
2895.36
2895.4
2895.51
2895.69
2895.93
2896.24
2896.62
2897.06
2897.56
2898.11
2898.73
2899.4
2900.13
2900.91
2901.75
2902.63
2903.56
2904.52
2905.52
2906.53
2907.58
2908.66
2909.79
2904.06
2902.56
2901.25
2900.09
2899.07
2898.18
2897.42
2896.78
2896.25
2895.84
2895.55
2895.38
2895.32
2895.35
2895.46
2895.65
2895.91
2896.23
2896.62
2897.05
2897.55
2898.1
2898.71
2899.38
2900.11
2900.9
2901.73
2902.62
2903.56
2904.52
2905.51
2906.52
2907.56
2908.65
2909.78
2904.06
2902.56
2901.25
2900.1
2899.09
2898.2
2897.43
2896.78
2896.25
2895.84
2895.56
2895.39
2895.33
2895.36
2895.47
2895.66
2895.92
2896.24
2896.62
2897.05
2897.55
2898.1
2898.71
2899.39
2900.12
2900.91
2901.74
2902.62
2903.55
2904.51
2905.5
2906.51
2907.57
2908.65
2909.78
2904.06
2902.56
2901.24
2900.07
2899.05
2898.17
2897.42
2896.78
2896.24
2895.82
2895.53
2895.37
2895.32
2895.36
2895.47
2895.65
2895.9
2896.23
2896.61
2897.05
2897.54
2898.1
2898.71
2899.39
2900.12
2900.91
2901.74
2902.63
2903.55
2904.51
2905.5
2906.52
2907.57
2908.65
2909.77
2904.1
2902.6
2901.28
2900.12
2899.11
2898.21
2897.45
2896.8
2896.27
2895.86
2895.57
2895.41
2895.34
2895.37
2895.48
2895.67
2895.93
2896.25
2896.62
2897.05
2897.55
2898.1
2898.72
2899.39
2900.12
2900.9
2901.74
2902.62
2903.56
2904.52
2905.5
2906.51
2907.55
2908.64
2909.76
2904.13
2902.62
2901.3
2900.14
2899.12
2898.23
2897.47
2896.83
2896.29
2895.88
2895.58
2895.41
2895.35
2895.39
2895.51
2895.7
2895.95
2896.26
2896.63
2897.07
2897.57
2898.12
2898.73
2899.4
2900.13
2900.92
2901.76
2902.64
2903.57
2904.52
2905.5
2906.51
2907.56
2908.65
2909.78
2904.12
2902.61
2901.29
2900.13
2899.12
2898.24
2897.47
2896.81
2896.28
2895.87
2895.59
2895.43
2895.36
2895.38
2895.48
2895.66
2895.92
2896.25
2896.63
2897.07
2897.56
2898.11
2898.72
2899.4
2900.12
2900.91
2901.74
2902.64
2903.57
2904.52
2905.5
2906.5
2907.55
2908.64
2909.77
2904.1
2902.6
2901.28
2900.12
2899.1
2898.21
2897.44
2896.79
2896.26
2895.85
2895.56
2895.39
2895.32
2895.35
2895.46
2895.65
2895.91
2896.24
2896.61
2897.05
2897.55
2898.11
2898.72
2899.39
2900.12
2900.91
2901.75
2902.63
2903.55
2904.5
2905.48
2906.49
2907.54
2908.63
2909.76
2904.14
2902.63
2901.31
2900.16
2899.14
2898.24
2897.48
2896.83
2896.31
2895.9
2895.6
2895.43
2895.37
2895.41
2895.51
2895.69
2895.94
2896.26
2896.64
2897.09
2897.59
2898.14
2898.76
2899.43
2900.15
2900.93
2901.75
2902.64
2903.56
2904.52
2905.5
2906.51
2907.55
2908.64
2909.77
2904.16
2902.65
2901.33
2900.17
2899.15
2898.26
2897.5
2896.85
2896.31
2895.91
2895.62
2895.45
2895.39
2895.42
2895.53
2895.72
2895.97
2896.28
2896.65
2897.09
2897.59
2898.15
2898.76
2899.42
2900.15
2900.94
2901.78
2902.66
2903.57
2904.52
2905.51
2906.53
2907.58
2908.66
2909.78
2904.14
2902.64
2901.32
2900.17
2899.15
2898.25
2897.49
2896.85
2896.32
2895.9
2895.61
2895.43
2895.37
2895.41
2895.53
2895.71
2895.96
2896.27
2896.65
2897.1
2897.6
2898.16
2898.76
2899.42
2900.14
2900.92
2901.75
2902.64
2903.57
2904.53
2905.51
2906.52
2907.57
2908.65
2909.78
2904.11
2902.61
2901.31
2900.17
2899.15
2898.25
2897.47
2896.82
2896.29
2895.88
2895.6
2895.43
2895.37
2895.4
2895.52
2895.71
2895.96
2896.28
2896.66
2897.09
2897.59
2898.15
2898.76
2899.42
2900.14
2900.92
2901.75
2902.64
2903.56
2904.52
2905.5
2906.52
2907.57
2908.66
2909.78
2904.08
2902.58
2901.27
2900.12
2899.11
2898.22
2897.45
2896.8
2896.26
2895.85
2895.57
2895.41
2895.36
2895.4
2895.52
2895.7
2895.95
2896.26
2896.64
2897.07
2897.58
2898.14
2898.75
2899.4
2900.12
2900.9
2901.73
2902.62
2903.55
2904.5
2905.49
2906.5
2907.56
2908.65
2909.78
2904.08
2902.59
2901.28
2900.13
2899.11
2898.22
2897.45
2896.8
2896.26
2895.85
2895.56
2895.4
2895.35
2895.4
2895.51
2895.69
2895.95
2896.27
2896.65
2897.08
2897.57
2898.11
2898.72
2899.4
2900.12
2900.9
2901.73
2902.61
2903.53
2904.49
2905.48
2906.5
2907.55
2908.64
2909.76
2904.06
2902.57
2901.26
2900.11
2899.09
2898.2
2897.44
2896.8
2896.26
2895.85
2895.56
2895.39
2895.33
2895.37
2895.48
2895.67
2895.92
2896.24
2896.62
2897.06
2897.56
2898.11
2898.72
2899.39
2900.11
2900.89
2901.73
2902.62
2903.54
2904.49
2905.48
2906.49
2907.54
2908.63
2909.76
2904.05
2902.56
2901.25
2900.09
2899.07
2898.19
2897.42
2896.79
2896.26
2895.86
2895.57
2895.4
2895.34
2895.37
2895.48
2895.67
2895.93
2896.26
2896.63
2897.05
2897.54
2898.09
2898.71
2899.38
2900.11
2900.89
2901.72
2902.6
2903.53
2904.49
2905.47
2906.49
2907.54
2908.63
2909.76
2904.03
2902.53
2901.22
2900.06
2899.05
2898.17
2897.41
2896.77
2896.24
2895.83
2895.54
2895.38
2895.32
2895.35
2895.46
2895.64
2895.91
2896.23
2896.61
2897.05
2897.54
2898.1
2898.71
2899.38
2900.1
2900.89
2901.72
2902.61
2903.54
2904.49
2905.47
2906.49
2907.54
2908.63
2909.76
2904.07
2902.58
2901.27
2900.13
2899.12
2898.22
2897.44
2896.79
2896.26
2895.86
2895.58
2895.4
2895.34
2895.37
2895.49
2895.68
2895.94
2896.26
2896.64
2897.07
2897.57
2898.12
2898.73
2899.39
2900.12
2900.9
2901.73
2902.62
2903.55
2904.5
2905.48
2906.5
2907.55
2908.64
2909.77
2904.1
2902.59
2901.27
2900.12
2899.11
2898.23
2897.47
2896.82
2896.29
2895.89
2895.61
2895.43
2895.36
2895.39
2895.5
2895.68
2895.94
2896.26
2896.64
2897.08
2897.58
2898.13
2898.73
2899.39
2900.12
2900.9
2901.74
2902.63
2903.56
2904.51
2905.49
2906.49
2907.55
2908.64
2909.77
2904.1
2902.61
2901.29
2900.14
2899.11
2898.23
2897.47
2896.83
2896.3
2895.88
2895.6
2895.43
2895.37
2895.4
2895.51
2895.69
2895.94
2896.25
2896.63
2897.07
2897.57
2898.12
2898.73
2899.39
2900.12
2900.9
2901.74
2902.63
2903.56
2904.52
2905.51
2906.51
2907.56
2908.64
2909.77
2904.08
2902.58
2901.27
2900.12
2899.12
2898.23
2897.47
2896.83
2896.3
2895.89
2895.61
2895.44
2895.37
2895.4
2895.5
2895.68
2895.94
2896.25
2896.63
2897.06
2897.56
2898.12
2898.73
2899.39
2900.11
2900.9
2901.74
2902.64
2903.57
2904.52
2905.5
2906.51
2907.55
2908.64
2909.77
2904.06
2902.57
2901.25
2900.09
2899.08
2898.21
2897.45
2896.81
2896.29
2895.88
2895.6
2895.42
2895.35
2895.37
2895.48
2895.66
2895.91
2896.23
2896.61
2897.04
2897.54
2898.09
2898.69
2899.36
2900.1
2900.89
2901.73
2902.62
2903.55
2904.5
2905.48
2906.5
2907.55
2908.64
2909.76
2904.03
2902.53
2901.22
2900.06
2899.05
2898.16
2897.4
2896.76
2896.24
2895.84
2895.55
2895.38
2895.32
2895.35
2895.47
2895.66
2895.91
2896.23
2896.61
2897.04
2897.53
2898.07
2898.69
2899.36
2900.09
2900.87
2901.71
2902.6
2903.53
2904.49
2905.47
2906.48
2907.53
2908.62
2909.75
2904.05
2902.55
2901.23
2900.08
2899.07
2898.19
2897.44
2896.8
2896.27
2895.86
2895.57
2895.41
2895.34
2895.37
2895.48
2895.67
2895.93
2896.25
2896.62
2897.06
2897.55
2898.11
2898.71
2899.37
2900.1
2900.89
2901.73
2902.62
2903.54
2904.49
2905.47
2906.49
2907.55
2908.64
2909.76
2904.05
2902.56
2901.25
2900.1
2899.09
2898.2
2897.43
2896.79
2896.27
2895.87
2895.59
2895.42
2895.36
2895.39
2895.51
2895.7
2895.96
2896.27
2896.64
2897.07
2897.56
2898.12
2898.73
2899.4
2900.12
2900.9
2901.74
2902.62
2903.55
2904.51
2905.5
2906.51
2907.56
2908.64
2909.77
2904.06
2902.56
2901.25
2900.1
2899.09
2898.21
2897.45
2896.8
2896.27
2895.86
2895.58
2895.41
2895.35
2895.38
2895.5
2895.69
2895.94
2896.25
2896.63
2897.06
2897.57
2898.13
2898.75
2899.42
2900.14
2900.92
2901.75
2902.63
2903.55
2904.5
2905.49
2906.51
2907.56
2908.65
2909.78
2904.07
2902.57
2901.26
2900.11
2899.1
2898.21
2897.45
2896.8
2896.27
2895.87
2895.6
2895.44
2895.37
2895.41
2895.52
2895.7
2895.96
2896.27
2896.64
2897.08
2897.57
2898.12
2898.73
2899.4
2900.12
2900.91
2901.74
2902.62
2903.54
2904.5
2905.49
2906.51
2907.56
2908.65
2909.78
2904.1
2902.6
2901.28
2900.12
2899.11
2898.23
2897.48
2896.83
2896.3
2895.88
2895.6
2895.44
2895.38
2895.42
2895.53
2895.71
2895.97
2896.29
2896.66
2897.08
2897.57
2898.12
2898.73
2899.4
2900.12
2900.9
2901.73
2902.61
2903.54
2904.5
2905.49
2906.51
2907.57
2908.66
2909.78
1731.28
1728.23
1725.41
1722.77
1720.28
1717.95
1715.77
1713.75
1711.89
1710.17
1708.59
1707.14
1705.81
1704.6
1703.48
1702.44
1701.47
1700.57
1699.74
1698.99
1698.32
1697.72
1697.19
1696.71
1696.3
1695.95
1695.66
1695.42
1695.23
1695.08
1694.96
1694.88
1694.83
1694.82
1694.85
1731.29
1728.24
1725.41
1722.76
1720.27
1717.94
1715.77
1713.76
1711.89
1710.16
1708.58
1707.13
1705.81
1704.59
1703.47
1702.43
1701.46
1700.57
1699.75
1699.01
1698.33
1697.72
1697.18
1696.71
1696.3
1695.95
1695.66
1695.42
1695.24
1695.09
1694.97
1694.88
1694.83
1694.82
1694.85
1731.27
1728.22
1725.39
1722.74
1720.26
1717.93
1715.76
1713.74
1711.87
1710.14
1708.56
1707.12
1705.8
1704.58
1703.46
1702.42
1701.46
1700.56
1699.74
1698.99
1698.32
1697.71
1697.18
1696.71
1696.3
1695.95
1695.66
1695.42
1695.23
1695.09
1694.97
1694.88
1694.83
1694.82
1694.85
1731.24
1728.19
1725.37
1722.72
1720.24
1717.91
1715.74
1713.72
1711.86
1710.13
1708.55
1707.1
1705.77
1704.56
1703.44
1702.4
1701.45
1700.56
1699.74
1698.99
1698.31
1697.7
1697.17
1696.7
1696.29
1695.94
1695.65
1695.42
1695.24
1695.09
1694.96
1694.87
1694.82
1694.82
1694.85
1731.23
1728.18
1725.36
1722.73
1720.25
1717.92
1715.74
1713.72
1711.85
1710.13
1708.55
1707.11
1705.78
1704.56
1703.44
1702.41
1701.45
1700.56
1699.74
1698.99
1698.31
1697.7
1697.16
1696.69
1696.29
1695.94
1695.65
1695.42
1695.23
1695.08
1694.96
1694.87
1694.82
1694.82
1694.85
1731.24
1728.19
1725.36
1722.71
1720.23
1717.91
1715.74
1713.72
1711.85
1710.12
1708.54
1707.1
1705.78
1704.56
1703.44
1702.4
1701.45
1700.56
1699.74
1698.99
1698.31
1697.71
1697.17
1696.7
1696.29
1695.94
1695.65
1695.42
1695.23
1695.07
1694.95
1694.87
1694.82
1694.81
1694.84
1731.25
1728.21
1725.38
1722.74
1720.26
1717.93
1715.75
1713.74
1711.87
1710.15
1708.57
1707.12
1705.78
1704.57
1703.45
1702.42
1701.46
1700.57
1699.74
1698.99
1698.31
1697.71
1697.17
1696.7
1696.29
1695.94
1695.65
1695.42
1695.23
1695.08
1694.96
1694.87
1694.82
1694.81
1694.84
1731.27
1728.22
1725.39
1722.75
1720.27
1717.94
1715.77
1713.75
1711.88
1710.15
1708.57
1707.12
1705.79
1704.58
1703.47
1702.43
1701.47
1700.57
1699.74
1698.99
1698.32
1697.71
1697.17
1696.7
1696.29
1695.95
1695.66
1695.43
1695.23
1695.08
1694.95
1694.86
1694.82
1694.81
1694.85
1731.27
1728.21
1725.39
1722.75
1720.27
1717.94
1715.76
1713.74
1711.87
1710.15
1708.57
1707.12
1705.79
1704.56
1703.44
1702.41
1701.45
1700.57
1699.75
1699
1698.32
1697.71
1697.17
1696.7
1696.29
1695.94
1695.65
1695.42
1695.24
1695.08
1694.95
1694.86
1694.81
1694.81
1694.84
1731.25
1728.2
1725.38
1722.73
1720.25
1717.92
1715.74
1713.72
1711.86
1710.13
1708.55
1707.1
1705.77
1704.55
1703.44
1702.41
1701.45
1700.56
1699.74
1699
1698.32
1697.72
1697.17
1696.7
1696.29
1695.94
1695.66
1695.43
1695.23
1695.07
1694.95
1694.86
1694.81
1694.81
1694.85
1731.28
1728.23
1725.4
1722.76
1720.27
1717.94
1715.77
1713.76
1711.89
1710.16
1708.58
1707.13
1705.8
1704.59
1703.47
1702.43
1701.46
1700.57
1699.75
1699.01
1698.34
1697.73
1697.19
1696.72
1696.3
1695.95
1695.66
1695.42
1695.23
1695.08
1694.96
1694.87
1694.82
1694.82
1694.85
1731.29
1728.24
1725.42
1722.77
1720.28
1717.96
1715.78
1713.77
1711.89
1710.17
1708.59
1707.14
1705.81
1704.6
1703.48
1702.44
1701.48
1700.58
1699.76
1699.01
1698.34
1697.73
1697.19
1696.71
1696.3
1695.96
1695.67
1695.44
1695.24
1695.08
1694.96
1694.88
1694.83
1694.82
1694.85
1731.28
1728.24
1725.41
1722.77
1720.28
1717.95
1715.78
1713.76
1711.89
1710.17
1708.58
1707.13
1705.8
1704.59
1703.48
1702.44
1701.47
1700.57
1699.76
1699.02
1698.34
1697.73
1697.19
1696.71
1696.3
1695.94
1695.66
1695.42
1695.24
1695.09
1694.96
1694.88
1694.82
1694.82
1694.85
1731.29
1728.24
1725.42
1722.78
1720.28
1717.94
1715.76
1713.74
1711.87
1710.16
1708.58
1707.13
1705.8
1704.59
1703.47
1702.44
1701.47
1700.58
1699.76
1699.01
1698.33
1697.73
1697.19
1696.71
1696.29
1695.94
1695.66
1695.42
1695.23
1695.08
1694.96
1694.88
1694.83
1694.82
1694.84
1731.28
1728.23
1725.4
1722.76
1720.27
1717.94
1715.76
1713.74
1711.87
1710.15
1708.57
1707.13
1705.8
1704.59
1703.47
1702.44
1701.47
1700.57
1699.75
1699
1698.33
1697.72
1697.18
1696.7
1696.28
1695.93
1695.65
1695.42
1695.23
1695.08
1694.96
1694.87
1694.82
1694.82
1694.85
1731.28
1728.24
1725.41
1722.76
1720.27
1717.93
1715.76
1713.74
1711.87
1710.14
1708.56
1707.12
1705.8
1704.59
1703.46
1702.43
1701.46
1700.57
1699.75
1699
1698.32
1697.71
1697.17
1696.7
1696.29
1695.94
1695.65
1695.41
1695.22
1695.07
1694.95
1694.87
1694.82
1694.81
1694.84
1731.27
1728.22
1725.4
1722.75
1720.26
1717.93
1715.76
1713.74
1711.87
1710.14
1708.56
1707.11
1705.79
1704.57
1703.45
1702.42
1701.46
1700.56
1699.74
1698.99
1698.32
1697.71
1697.17
1696.69
1696.28
1695.94
1695.65
1695.41
1695.22
1695.07
1694.95
1694.86
1694.82
1694.81
1694.84
1731.26
1728.22
1725.39
1722.74
1720.25
1717.92
1715.75
1713.74
1711.87
1710.15
1708.57
1707.12
1705.79
1704.57
1703.45
1702.42
1701.46
1700.57
1699.74
1698.98
1698.3
1697.7
1697.16
1696.69
1696.28
1695.93
1695.64
1695.41
1695.22
1695.07
1694.95
1694.86
1694.82
1694.81
1694.84
1731.25
1728.2
1725.37
1722.72
1720.24
1717.92
1715.75
1713.73
1711.86
1710.13
1708.55
1707.11
1705.78
1704.56
1703.44
1702.4
1701.45
1700.56
1699.74
1698.99
1698.31
1697.7
1697.16
1696.69
1696.28
1695.93
1695.64
1695.41
1695.22
1695.07
1694.94
1694.86
1694.81
1694.81
1694.84
1731.28
1728.23
1725.41
1722.77
1720.28
1717.93
1715.74
1713.73
1711.86
1710.15
1708.57
1707.12
1705.78
1704.57
1703.46
1702.43
1701.47
1700.57
1699.75
1699
1698.32
1697.71
1697.17
1696.7
1696.29
1695.94
1695.65
1695.42
1695.23
1695.07
1694.95
1694.86
1694.82
1694.81
1694.84
1731.28
1728.22
1725.4
1722.75
1720.27
1717.94
1715.77
1713.75
1711.89
1710.17
1708.58
1707.13
1705.79
1704.57
1703.46
1702.42
1701.46
1700.57
1699.75
1699
1698.33
1697.72
1697.17
1696.69
1696.28
1695.94
1695.65
1695.43
1695.24
1695.07
1694.94
1694.86
1694.81
1694.81
1694.85
1731.27
1728.22
1725.4
1722.76
1720.27
1717.94
1715.77
1713.76
1711.89
1710.16
1708.58
1707.13
1705.8
1704.59
1703.46
1702.42
1701.46
1700.57
1699.75
1699
1698.33
1697.72
1697.17
1696.7
1696.29
1695.94
1695.65
1695.42
1695.24
1695.08
1694.96
1694.87
1694.82
1694.81
1694.84
1731.27
1728.22
1725.4
1722.76
1720.28
1717.95
1715.78
1713.76
1711.89
1710.16
1708.58
1707.13
1705.8
1704.57
1703.45
1702.42
1701.46
1700.57
1699.74
1698.99
1698.32
1697.71
1697.18
1696.7
1696.29
1695.94
1695.66
1695.43
1695.24
1695.08
1694.96
1694.87
1694.82
1694.81
1694.84
1731.26
1728.21
1725.39
1722.74
1720.26
1717.94
1715.77
1713.75
1711.88
1710.16
1708.57
1707.11
1705.78
1704.56
1703.44
1702.4
1701.44
1700.55
1699.73
1698.98
1698.31
1697.7
1697.16
1696.69
1696.28
1695.94
1695.66
1695.43
1695.23
1695.07
1694.95
1694.86
1694.82
1694.81
1694.84
1731.23
1728.18
1725.36
1722.71
1720.23
1717.9
1715.73
1713.72
1711.86
1710.13
1708.55
1707.1
1705.77
1704.56
1703.44
1702.41
1701.45
1700.55
1699.73
1698.98
1698.3
1697.69
1697.15
1696.68
1696.27
1695.93
1695.64
1695.41
1695.22
1695.07
1694.94
1694.86
1694.81
1694.8
1694.84
1731.25
1728.21
1725.38
1722.73
1720.25
1717.93
1715.76
1713.74
1711.87
1710.15
1708.56
1707.11
1705.78
1704.57
1703.45
1702.42
1701.46
1700.56
1699.74
1698.99
1698.31
1697.71
1697.16
1696.68
1696.28
1695.93
1695.65
1695.42
1695.22
1695.07
1694.95
1694.86
1694.82
1694.81
1694.84
1731.26
1728.21
1725.39
1722.76
1720.27
1717.94
1715.76
1713.74
1711.88
1710.16
1708.58
1707.13
1705.79
1704.58
1703.46
1702.43
1701.47
1700.57
1699.74
1698.99
1698.32
1697.71
1697.18
1696.7
1696.29
1695.94
1695.65
1695.42
1695.23
1695.08
1694.96
1694.87
1694.82
1694.82
1694.85
1731.27
1728.22
1725.39
1722.75
1720.27
1717.94
1715.76
1713.74
1711.88
1710.15
1708.57
1707.12
1705.79
1704.58
1703.47
1702.43
1701.47
1700.57
1699.74
1699
1698.33
1697.73
1697.19
1696.71
1696.3
1695.95
1695.66
1695.42
1695.23
1695.07
1694.95
1694.87
1694.83
1694.82
1694.85
1731.27
1728.22
1725.4
1722.75
1720.27
1717.94
1715.77
1713.75
1711.88
1710.16
1708.59
1707.14
1705.81
1704.59
1703.47
1702.43
1701.47
1700.57
1699.75
1699
1698.32
1697.72
1697.17
1696.7
1696.29
1695.94
1695.65
1695.42
1695.23
1695.08
1694.96
1694.88
1694.83
1694.82
1694.85
1731.28
1728.23
1725.4
1722.76
1720.28
1717.95
1715.78
1713.77
1711.89
1710.17
1708.59
1707.14
1705.81
1704.6
1703.47
1702.44
1701.47
1700.58
1699.75
1698.99
1698.32
1697.71
1697.17
1696.7
1696.29
1695.94
1695.65
1695.42
1695.23
1695.08
1694.96
1694.88
1694.83
1694.82
1694.86
1247.65
1243.05
1238.74
1234.67
1230.82
1227.2
1223.79
1220.59
1217.59
1214.78
1212.15
1209.67
1207.33
1205.14
1203.07
1201.1
1199.23
1197.44
1195.75
1194.17
1192.68
1191.27
1189.96
1188.72
1187.55
1186.46
1185.44
1184.48
1183.58
1182.73
1181.92
1181.15
1180.43
1179.76
1179.14
1247.65
1243.05
1238.74
1234.66
1230.81
1227.18
1223.78
1220.59
1217.59
1214.78
1212.13
1209.66
1207.33
1205.14
1203.07
1201.09
1199.22
1197.44
1195.76
1194.17
1192.68
1191.27
1189.95
1188.72
1187.55
1186.46
1185.44
1184.48
1183.58
1182.73
1181.92
1181.15
1180.43
1179.76
1179.13
1247.64
1243.04
1238.73
1234.65
1230.8
1227.18
1223.77
1220.58
1217.58
1214.77
1212.13
1209.65
1207.32
1205.13
1203.06
1201.09
1199.22
1197.44
1195.76
1194.17
1192.68
1191.27
1189.95
1188.72
1187.55
1186.46
1185.44
1184.48
1183.58
1182.73
1181.92
1181.15
1180.43
1179.76
1179.13
1247.62
1243.02
1238.71
1234.64
1230.79
1227.17
1223.76
1220.57
1217.57
1214.76
1212.12
1209.64
1207.31
1205.12
1203.04
1201.08
1199.22
1197.44
1195.76
1194.17
1192.67
1191.27
1189.95
1188.71
1187.54
1186.45
1185.44
1184.48
1183.59
1182.73
1181.92
1181.15
1180.43
1179.76
1179.14
1247.62
1243.02
1238.71
1234.64
1230.79
1227.17
1223.76
1220.56
1217.56
1214.75
1212.12
1209.64
1207.31
1205.11
1203.04
1201.08
1199.21
1197.44
1195.76
1194.17
1192.67
1191.26
1189.94
1188.7
1187.54
1186.46
1185.44
1184.48
1183.58
1182.73
1181.91
1181.15
1180.43
1179.76
1179.13
1247.62
1243.02
1238.71
1234.63
1230.79
1227.17
1223.76
1220.57
1217.56
1214.75
1212.11
1209.64
1207.31
1205.12
1203.05
1201.08
1199.21
1197.44
1195.76
1194.17
1192.67
1191.27
1189.95
1188.71
1187.55
1186.46
1185.44
1184.48
1183.58
1182.72
1181.91
1181.14
1180.43
1179.75
1179.13
1247.63
1243.04
1238.72
1234.65
1230.8
1227.18
1223.77
1220.58
1217.58
1214.77
1212.13
1209.65
1207.32
1205.12
1203.06
1201.09
1199.22
1197.45
1195.76
1194.17
1192.67
1191.27
1189.95
1188.71
1187.55
1186.46
1185.44
1184.48
1183.58
1182.73
1181.91
1181.14
1180.42
1179.75
1179.13
1247.64
1243.04
1238.73
1234.65
1230.81
1227.18
1223.78
1220.58
1217.58
1214.77
1212.13
1209.65
1207.32
1205.13
1203.06
1201.1
1199.22
1197.44
1195.76
1194.17
1192.67
1191.27
1189.95
1188.71
1187.55
1186.46
1185.44
1184.49
1183.58
1182.72
1181.91
1181.14
1180.42
1179.75
1179.13
1247.64
1243.04
1238.73
1234.65
1230.81
1227.18
1223.77
1220.58
1217.58
1214.77
1212.13
1209.65
1207.31
1205.11
1203.04
1201.08
1199.21
1197.44
1195.76
1194.17
1192.67
1191.27
1189.95
1188.71
1187.54
1186.45
1185.44
1184.48
1183.58
1182.72
1181.91
1181.14
1180.42
1179.75
1179.13
1247.63
1243.03
1238.71
1234.64
1230.79
1227.16
1223.76
1220.56
1217.56
1214.75
1212.12
1209.64
1207.3
1205.11
1203.04
1201.08
1199.21
1197.44
1195.76
1194.17
1192.68
1191.27
1189.95
1188.71
1187.54
1186.46
1185.44
1184.49
1183.59
1182.73
1181.91
1181.14
1180.43
1179.76
1179.14
1247.65
1243.05
1238.73
1234.66
1230.81
1227.18
1223.78
1220.59
1217.59
1214.78
1212.13
1209.65
1207.33
1205.13
1203.06
1201.09
1199.22
1197.44
1195.76
1194.18
1192.69
1191.28
1189.96
1188.72
1187.55
1186.46
1185.44
1184.48
1183.58
1182.73
1181.92
1181.15
1180.43
1179.76
1179.14
1247.66
1243.06
1238.74
1234.67
1230.82
1227.2
1223.79
1220.59
1217.6
1214.78
1212.14
1209.66
1207.33
1205.14
1203.07
1201.1
1199.23
1197.45
1195.77
1194.18
1192.69
1191.28
1189.96
1188.71
1187.55
1186.47
1185.45
1184.49
1183.59
1182.73
1181.92
1181.15
1180.43
1179.76
1179.14
1247.65
1243.05
1238.74
1234.66
1230.81
1227.19
1223.78
1220.59
1217.59
1214.78
1212.13
1209.65
1207.33
1205.14
1203.07
1201.1
1199.22
1197.44
1195.76
1194.18
1192.69
1191.28
1189.96
1188.71
1187.55
1186.46
1185.44
1184.48
1183.59
1182.73
1181.92
1181.15
1180.43
1179.76
1179.13
1247.68
1243.08
1238.77
1234.69
1230.83
1227.19
1223.78
1220.58
1217.59
1214.78
1212.14
1209.66
1207.33
1205.13
1203.06
1201.1
1199.23
1197.45
1195.76
1194.18
1192.68
1191.28
1189.95
1188.71
1187.55
1186.46
1185.44
1184.49
1183.58
1182.73
1181.92
1181.15
1180.43
1179.76
1179.13
1247.67
1243.07
1238.76
1234.68
1230.83
1227.2
1223.79
1220.59
1217.59
1214.78
1212.14
1209.66
1207.33
1205.14
1203.07
1201.1
1199.23
1197.44
1195.76
1194.17
1192.68
1191.28
1189.95
1188.71
1187.54
1186.45
1185.44
1184.48
1183.58
1182.73
1181.92
1181.15
1180.43
1179.76
1179.13
1247.68
1243.08
1238.76
1234.68
1230.83
1227.2
1223.79
1220.59
1217.59
1214.77
1212.13
1209.66
1207.33
1205.14
1203.06
1201.09
1199.22
1197.45
1195.76
1194.17
1192.67
1191.27
1189.95
1188.71
1187.55
1186.46
1185.43
1184.48
1183.58
1182.72
1181.91
1181.15
1180.43