/*--------------------------------*- C++ -*----------------------------------*\
  =========                 |
  \\      /  F ield         | OpenFOAM: The Open Source CFD Toolbox
   \\    /   O peration     | Website:  https://openfoam.org
    \\  /    A nd           | Version:  9
     \\/     M anipulation  |
\*---------------------------------------------------------------------------*/
FoamFile
{
    format      ascii;
    class       surfaceScalarField;
    location    "1200";
    object      phi;
}
// * * * * * * * * * * * * * * * * * * * * * * * * * * * * * * * * * * * * * //

dimensions      [0 3 -1 0 0 0 0];

internalField   nonuniform List<scalar> 
241122
(
4.73505e-05
-1.56245e-10
-3.27032e-08
4.73845e-05
-4.06805e-10
-3.40054e-08
4.74197e-05
-5.07675e-10
-3.54085e-08
4.74558e-05
-6.21775e-10
-3.64665e-08
4.74925e-05
-6.91484e-10
-3.7003e-08
4.75297e-05
-6.09921e-10
-3.70496e-08
4.7567e-05
-4.47181e-10
-3.68144e-08
4.76045e-05
-2.65142e-10
-3.71698e-08
4.76425e-05
-1.27894e-10
-3.81195e-08
4.76808e-05
-4.63487e-11
-3.89395e-08
4.77195e-05
-1.71669e-10
-3.92383e-08
4.77584e-05
-4.5758e-10
-3.91037e-08
4.77976e-05
-6.62431e-10
-3.89925e-08
4.78372e-05
-6.35776e-10
-3.91955e-08
4.78775e-05
-1.98125e-10
-3.99093e-08
4.79184e-05
3.26415e-10
-4.07413e-08
4.79599e-05
5.69325e-10
-4.1315e-08
4.80016e-05
5.94985e-10
-4.17504e-08
4.80436e-05
5.85287e-10
-4.21169e-08
4.80856e-05
6.05245e-10
-4.22655e-08
4.81276e-05
6.35042e-10
-4.2387e-08
4.81697e-05
6.46552e-10
-4.26219e-08
4.82121e-05
5.6799e-10
-4.26965e-08
4.82548e-05
3.39352e-10
-4.24764e-08
4.82979e-05
6.94924e-11
-4.23682e-08
4.83414e-05
-3.6347e-11
-4.26788e-08
4.83854e-05
-7.37882e-12
-4.33709e-08
4.84297e-05
-4.45452e-11
-4.4287e-08
4.84744e-05
-2.24991e-10
-4.50328e-08
4.85197e-05
-3.3889e-10
-4.55183e-08
4.85653e-05
-1.84332e-10
-4.58068e-08
4.86111e-05
1.40868e-10
-4.59341e-08
4.86569e-05
2.91741e-10
-4.59483e-08
4.87025e-05
1.85838e-10
-4.59087e-08
-1.38836e-10
-4.58464e-08
4.73504e-05
-1.52016e-10
-3.30059e-08
4.73844e-05
-2.58151e-10
-3.4185e-08
4.74196e-05
-4.77954e-10
-3.52143e-08
4.74558e-05
-6.58925e-10
-3.61436e-08
4.74927e-05
-6.06294e-10
-3.7003e-08
4.75299e-05
-3.9299e-10
-3.74462e-08
4.75671e-05
-1.58974e-10
-3.74642e-08
4.76043e-05
2.75772e-11
-3.76141e-08
4.76421e-05
4.66813e-11
-3.79547e-08
4.76804e-05
-8.06186e-11
-3.82077e-08
4.77191e-05
-3.67387e-10
-3.85199e-08
4.77582e-05
-6.3673e-10
-3.89006e-08
4.77975e-05
-6.75263e-10
-3.92988e-08
4.78371e-05
-4.83002e-10
-3.97515e-08
4.78773e-05
-9.97166e-11
-4.0261e-08
4.79182e-05
2.13415e-10
-4.07198e-08
4.79596e-05
3.97315e-10
-4.11866e-08
4.80013e-05
6.45745e-10
-4.17845e-08
4.80433e-05
9.12567e-10
-4.22455e-08
4.80852e-05
9.75373e-10
-4.22796e-08
4.81272e-05
7.96512e-10
-4.21137e-08
4.81694e-05
4.85624e-10
-4.20929e-08
4.82121e-05
2.0125e-10
-4.22805e-08
4.8255e-05
3.50161e-11
-4.26155e-08
4.82982e-05
-5.75194e-11
-4.30345e-08
4.83416e-05
-1.3976e-10
-4.33547e-08
4.83855e-05
-2.11035e-10
-4.36197e-08
4.84298e-05
-3.02739e-10
-4.39966e-08
4.84746e-05
-3.3933e-10
-4.46751e-08
4.852e-05
-1.24891e-10
-4.55498e-08
4.85657e-05
2.10774e-10
-4.60772e-08
4.86114e-05
4.05254e-10
-4.60351e-08
4.86572e-05
3.0331e-10
-4.57217e-08
4.87028e-05
2.55291e-11
-4.5491e-08
-2.13325e-10
-4.56053e-08
4.73494e-05
-5.32987e-10
-3.28513e-08
4.73837e-05
-8.63016e-10
-3.36827e-08
4.74191e-05
-9.03039e-10
-3.5013e-08
4.74555e-05
-6.56958e-10
-3.63745e-08
4.74924e-05
-1.18551e-10
-3.74518e-08
4.75296e-05
1.97439e-10
-3.77336e-08
4.75666e-05
1.77692e-10
-3.73835e-08
4.76038e-05
-6.37282e-12
-3.72227e-08
4.76416e-05
-1.29015e-10
-3.76105e-08
4.76799e-05
-1.02711e-10
-3.8234e-08
4.77186e-05
-6.78316e-11
-3.89903e-08
4.77577e-05
-1.63482e-10
-3.94899e-08
4.77969e-05
-3.24694e-10
-3.9594e-08
4.78364e-05
-4.01123e-10
-3.96547e-08
4.78766e-05
-3.89358e-10
-3.9875e-08
4.79175e-05
-3.64774e-10
-4.02628e-08
4.7959e-05
-2.85705e-10
-4.07141e-08
4.80008e-05
1.97804e-10
-4.13572e-08
4.80428e-05
8.74304e-10
-4.19915e-08
4.80849e-05
1.23274e-09
-4.22879e-08
4.81269e-05
1.25356e-09
-4.24852e-08
4.81692e-05
8.81718e-10
-4.26633e-08
4.82118e-05
2.28869e-10
-4.26435e-08
4.82548e-05
-2.73173e-10
-4.26035e-08
4.8298e-05
-4.89765e-10
-4.2801e-08
4.83416e-05
-5.45475e-10
-4.3188e-08
4.83856e-05
-4.5313e-10
-4.37301e-08
4.843e-05
-2.82641e-10
-4.43753e-08
4.84748e-05
-9.77767e-11
-4.50706e-08
4.85202e-05
1.47572e-10
-4.56225e-08
4.85659e-05
3.38959e-10
-4.58194e-08
4.86117e-05
3.48592e-10
-4.57291e-08
4.86574e-05
1.43047e-10
-4.55748e-08
4.87031e-05
-1.22123e-10
-4.55315e-08
-2.21857e-10
-4.56667e-08
4.73488e-05
-2.69888e-10
-3.33371e-08
4.73828e-05
-6.55077e-10
-3.42675e-08
4.74181e-05
-7.76683e-10
-3.53635e-08
4.74543e-05
-5.94181e-10
-3.63167e-08
4.74913e-05
-1.72904e-10
-3.69432e-08
4.75286e-05
-5.49167e-12
-3.70949e-08
4.75659e-05
-5.27258e-11
-3.7033e-08
4.76033e-05
-4.67877e-11
-3.74236e-08
4.76413e-05
1.40211e-10
-3.82089e-08
4.76796e-05
1.85516e-10
-3.86512e-08
4.77184e-05
-7.92726e-11
-3.87772e-08
4.77576e-05
-3.62872e-10
-3.8944e-08
4.7797e-05
-4.34578e-10
-3.92964e-08
4.78367e-05
-3.48087e-10
-3.97396e-08
4.78769e-05
-2.96001e-10
-4.02862e-08
4.79178e-05
-3.14298e-10
-4.0862e-08
4.79592e-05
-2.04743e-10
-4.14197e-08
4.80009e-05
3.12928e-10
-4.18377e-08
4.80428e-05
9.16844e-10
-4.19694e-08
4.80847e-05
1.10684e-09
-4.18306e-08
4.81268e-05
9.28472e-10
-4.17213e-08
4.81693e-05
4.81593e-10
-4.20068e-08
4.82121e-05
-9.83324e-11
-4.24569e-08
4.82551e-05
-4.59165e-10
-4.2849e-08
4.82984e-05
-5.27547e-10
-4.32585e-08
4.8342e-05
-4.6094e-10
-4.3679e-08
4.8386e-05
-2.81822e-10
-4.4101e-08
4.84303e-05
-1.40702e-11
-4.45587e-08
4.84751e-05
2.46169e-10
-4.51048e-08
4.85204e-05
3.82769e-10
-4.55226e-08
4.8566e-05
3.57653e-10
-4.56213e-08
4.86117e-05
1.15991e-10
-4.5473e-08
4.86574e-05
-2.01961e-10
-4.53448e-08
4.87031e-05
-3.45334e-10
-4.54391e-08
-1.91052e-10
-4.57008e-08
4.73496e-05
-1.85059e-10
-3.33562e-08
4.73837e-05
1.52902e-10
-3.49434e-08
4.74189e-05
4.63366e-10
-3.63946e-08
4.74549e-05
5.35389e-10
-3.71389e-08
4.74916e-05
2.64759e-10
-3.71467e-08
4.75287e-05
-1.59628e-10
-3.69106e-08
4.75658e-05
-3.47972e-10
-3.68541e-08
4.76032e-05
-2.58054e-10
-3.72071e-08
4.76411e-05
-3.18649e-11
-3.77232e-08
4.76794e-05
-1.02229e-11
-3.81021e-08
4.77181e-05
-2.38924e-10
-3.85787e-08
4.77572e-05
-3.61801e-10
-3.90868e-08
4.77965e-05
-3.45782e-10
-3.93942e-08
4.78361e-05
-3.1235e-10
-3.96244e-08
4.78764e-05
-2.94931e-10
-4.01616e-08
4.79172e-05
-1.77113e-10
-4.09709e-08
4.79586e-05
1.61432e-11
-4.15854e-08
4.80004e-05
2.19059e-10
-4.16557e-08
4.80423e-05
4.16654e-10
-4.14683e-08
4.80844e-05
5.40837e-10
-4.14406e-08
4.81265e-05
5.87172e-10
-4.17516e-08
4.8169e-05
4.71822e-10
-4.24334e-08
4.82118e-05
9.65372e-11
-4.29854e-08
4.82548e-05
-2.94771e-10
-4.3221e-08
4.82982e-05
-4.56378e-10
-4.34147e-08
4.83418e-05
-4.56744e-10
-4.36483e-08
4.83858e-05
-3.62182e-10
-4.38829e-08
4.84301e-05
-1.51079e-10
-4.41615e-08
4.84749e-05
2.20786e-10
-4.47452e-08
4.85203e-05
4.92935e-10
-4.53949e-08
4.85658e-05
4.71075e-10
-4.56851e-08
4.86115e-05
1.69962e-10
-4.57219e-08
4.86572e-05
-1.91507e-10
-4.56658e-08
4.87028e-05
-3.47443e-10
-4.56526e-08
-1.61057e-10
-4.57121e-08
4.73485e-05
8.0106e-10
-3.39198e-08
4.73823e-05
1.01868e-09
-3.47071e-08
4.74174e-05
6.35345e-10
-3.52775e-08
4.74537e-05
3.97906e-12
-3.57261e-08
4.74907e-05
-3.6912e-10
-3.64007e-08
4.7528e-05
-3.66643e-10
-3.71034e-08
4.75652e-05
-1.00643e-10
-3.74961e-08
4.76026e-05
2.19038e-11
-3.76932e-08
4.76405e-05
-1.21525e-10
-3.7797e-08
4.76789e-05
-3.50155e-10
-3.8024e-08
4.77178e-05
-3.78331e-10
-3.87246e-08
4.7757e-05
-7.24113e-11
-3.94899e-08
4.77963e-05
2.37131e-10
-3.99298e-08
4.78359e-05
2.22938e-10
-4.01161e-08
4.7876e-05
-1.41958e-10
-4.02849e-08
4.79169e-05
-4.52247e-10
-4.05656e-08
4.79584e-05
-4.41469e-10
-4.09902e-08
4.80003e-05
-1.23926e-10
-4.15017e-08
4.80423e-05
2.531e-10
-4.18461e-08
4.80843e-05
4.51661e-10
-4.18877e-08
4.81263e-05
4.83647e-10
-4.18797e-08
4.81686e-05
3.76418e-10
-4.22355e-08
4.82114e-05
8.51e-11
-4.27318e-08
4.82545e-05
-2.89952e-10
-4.30759e-08
4.82979e-05
-5.33009e-10
-4.33272e-08
4.83416e-05
-5.97524e-10
-4.35793e-08
4.83857e-05
-4.75502e-10
-4.39357e-08
4.84301e-05
-9.54928e-11
-4.44223e-08
4.84749e-05
3.15542e-10
-4.49077e-08
4.85203e-05
5.10324e-10
-4.53224e-08
4.85658e-05
4.69027e-10
-4.55863e-08
4.86115e-05
2.18344e-10
-4.57501e-08
4.86573e-05
-1.24665e-10
-4.57582e-08
4.87029e-05
-3.62162e-10
-4.56349e-08
-4.07474e-10
-4.53961e-08
4.73491e-05
3.83092e-10
-3.27542e-08
4.73832e-05
7.31823e-10
-3.39214e-08
4.74187e-05
6.12352e-10
-3.53786e-08
4.7455e-05
2.29024e-10
-3.65544e-08
4.74919e-05
-8.04496e-11
-3.71886e-08
4.7529e-05
-2.3025e-10
-3.72624e-08
4.75661e-05
-2.21943e-10
-3.70295e-08
4.76035e-05
-1.85272e-10
-3.72002e-08
4.76414e-05
-1.98957e-10
-3.77959e-08
4.76797e-05
-1.88852e-10
-3.84479e-08
4.77184e-05
-3.93303e-11
-3.90615e-08
4.77575e-05
2.02598e-10
-3.9335e-08
4.77968e-05
2.70317e-10
-3.93068e-08
4.78364e-05
6.16326e-11
-3.94199e-08
4.78766e-05
-2.3913e-10
-4.01181e-08
4.79176e-05
-4.06232e-10
-4.09579e-08
4.7959e-05
-3.31914e-10
-4.15139e-08
4.80008e-05
-2.19043e-10
-4.16368e-08
4.80427e-05
-2.29317e-10
-4.14625e-08
4.80847e-05
-1.8688e-10
-4.13374e-08
4.81268e-05
1.13191e-10
-4.16622e-08
4.81691e-05
3.75227e-10
-4.23695e-08
4.82119e-05
4.04512e-10
-4.30317e-08
4.82549e-05
6.62988e-11
-4.33441e-08
4.82982e-05
-5.09323e-10
-4.33477e-08
4.83419e-05
-7.8664e-10
-4.34698e-08
4.83859e-05
-6.46817e-10
-4.38463e-08
4.84303e-05
-9.69244e-11
-4.43499e-08
4.84751e-05
4.22362e-10
-4.48876e-08
4.85204e-05
5.71885e-10
-4.53221e-08
4.85659e-05
3.37101e-10
-4.5416e-08
4.86116e-05
-1.59139e-10
-4.53288e-08
4.86574e-05
-5.02318e-10
-4.5375e-08
4.87032e-05
-5.15428e-10
-4.55645e-08
-3.45085e-10
-4.57503e-08
4.73496e-05
1.23784e-10
-3.26863e-08
4.73836e-05
5.96926e-10
-3.38522e-08
4.74188e-05
6.96422e-10
-3.53405e-08
4.74552e-05
5.52724e-10
-3.66368e-08
4.74921e-05
2.59121e-10
-3.73116e-08
4.75293e-05
-1.95609e-11
-3.73983e-08
4.75664e-05
-2.26966e-10
-3.71705e-08
4.76038e-05
-3.2675e-10
-3.72314e-08
4.76416e-05
-4.12402e-10
-3.75948e-08
4.76799e-05
-4.68381e-10
-3.79838e-08
4.77187e-05
-1.90937e-10
-3.86277e-08
4.77579e-05
2.7744e-10
-3.92242e-08
4.77972e-05
5.53532e-10
-3.96063e-08
4.78368e-05
5.69943e-10
-4.00841e-08
4.78769e-05
2.20854e-10
-4.06275e-08
4.79178e-05
-3.2855e-10
-4.09245e-08
4.79592e-05
-7.2822e-10
-4.10066e-08
4.80011e-05
-8.61234e-10
-4.11548e-08
4.80431e-05
-7.21111e-10
-4.15354e-08
4.80852e-05
-3.09099e-10
-4.1886e-08
4.81271e-05
2.97615e-10
-4.21617e-08
4.81694e-05
7.04608e-10
-4.25834e-08
4.8212e-05
7.69283e-10
-4.29677e-08
4.8255e-05
4.70194e-10
-4.3324e-08
4.82983e-05
-1.40725e-10
-4.3668e-08
4.83419e-05
-5.45044e-10
-4.38767e-08
4.83859e-05
-5.89581e-10
-4.4005e-08
4.84302e-05
-3.80944e-10
-4.39904e-08
4.84749e-05
-5.24988e-12
-4.42995e-08
4.85202e-05
2.32557e-10
-4.49427e-08
4.85659e-05
2.51741e-10
-4.55251e-08
4.86116e-05
7.26805e-11
-4.5959e-08
4.86573e-05
-1.35926e-10
-4.60739e-08
4.8703e-05
-2.49636e-10
-4.58906e-08
-2.6202e-10
-4.56724e-08
4.73494e-05
1.04859e-10
-3.27799e-08
4.73834e-05
2.30389e-10
-3.36213e-08
4.74187e-05
4.88189e-10
-3.51347e-08
4.74551e-05
7.70882e-10
-3.66157e-08
4.74921e-05
7.97613e-10
-3.75566e-08
4.75293e-05
4.52778e-10
-3.76862e-08
4.75665e-05
-1.60781e-10
-3.72617e-08
4.76039e-05
-5.84042e-10
-3.71543e-08
4.76418e-05
-6.04719e-10
-3.76911e-08
4.76801e-05
-2.95204e-10
-3.84733e-08
4.77188e-05
2.65255e-10
-3.91645e-08
4.77579e-05
6.44696e-10
-3.93713e-08
4.77971e-05
5.8241e-10
-3.92362e-08
4.78366e-05
2.42982e-10
-3.92365e-08
4.78769e-05
-1.38077e-10
-3.99066e-08
4.79179e-05
-3.03442e-10
-4.09593e-08
4.79593e-05
-2.61995e-10
-4.18386e-08
4.8001e-05
-2.09759e-10
-4.22817e-08
4.80427e-05
-2.55513e-10
-4.22331e-08
4.80845e-05
-2.25772e-10
-4.18639e-08
4.81264e-05
-1.02367e-10
-4.1486e-08
4.81687e-05
2.793e-10
-4.18176e-08
4.82113e-05
6.10065e-10
-4.24885e-08
4.82544e-05
6.30159e-10
-4.31593e-08
4.82977e-05
3.09269e-10
-4.381e-08
4.83414e-05
-2.25349e-10
-4.40151e-08
4.83855e-05
-5.05588e-10
-4.40906e-08
4.84297e-05
-3.85875e-10
-4.42793e-08
4.84744e-05
-9.32584e-12
-4.46613e-08
4.85196e-05
1.69092e-10
-4.51173e-08
4.85652e-05
5.75999e-11
-4.53415e-08
4.86109e-05
-1.53856e-10
-4.54925e-08
4.86567e-05
-2.26519e-10
-4.56886e-08
4.87024e-05
-1.17365e-10
-4.58446e-08
4.3634e-11
-4.59438e-08
4.735e-05
2.88097e-10
-3.29417e-08
4.73837e-05
5.71083e-10
-3.41386e-08
4.74188e-05
7.80878e-10
-3.5367e-08
4.7455e-05
8.12706e-10
-3.61841e-08
4.74919e-05
6.08498e-10
-3.67032e-08
4.75291e-05
2.93972e-10
-3.70582e-08
4.75663e-05
-6.51518e-11
-3.73263e-08
4.76036e-05
-3.10257e-10
-3.76649e-08
4.76414e-05
-3.49942e-10
-3.80531e-08
4.76797e-05
-1.79726e-10
-3.83317e-08
4.77184e-05
1.70881e-10
-3.85967e-08
4.77574e-05
3.99749e-10
-3.87896e-08
4.77967e-05
3.77507e-10
-3.90295e-08
4.78363e-05
2.04315e-10
-3.95436e-08
4.78766e-05
1.95793e-10
-4.05802e-08
4.79174e-05
3.29056e-10
-4.15105e-08
4.79588e-05
3.28661e-10
-4.1912e-08
4.80005e-05
4.57392e-12
-4.18695e-08
4.80423e-05
-5.09494e-10
-4.16269e-08
4.80843e-05
-7.12322e-10
-4.14454e-08
4.81263e-05
-5.93213e-10
-4.15197e-08
4.81686e-05
-1.13157e-11
-4.20176e-08
4.82113e-05
6.24779e-10
-4.26626e-08
4.82544e-05
8.36156e-10
-4.32352e-08
4.82978e-05
6.4906e-10
-4.37758e-08
4.83416e-05
8.15865e-11
-4.40625e-08
4.83856e-05
-4.19511e-10
-4.40889e-08
4.84298e-05
-6.32964e-10
-4.3947e-08
4.84744e-05
-6.13574e-10
-4.39507e-08
4.85195e-05
-4.87688e-10
-4.44638e-08
4.85651e-05
-3.83516e-10
-4.51062e-08
4.86108e-05
-2.79876e-10
-4.56159e-08
4.86566e-05
-1.06919e-10
-4.58696e-08
4.87023e-05
1.17365e-10
-4.58801e-08
2.69101e-10
-4.58171e-08
4.73505e-05
1.09774e-10
-3.25866e-08
4.73844e-05
4.58211e-10
-3.37881e-08
4.74196e-05
8.60956e-10
-3.52743e-08
4.74558e-05
1.12805e-09
-3.6538e-08
4.74926e-05
1.08665e-09
-3.73564e-08
4.75298e-05
7.38486e-10
-3.759e-08
4.75669e-05
1.34017e-10
-3.7349e-08
4.76042e-05
-3.22134e-10
-3.73076e-08
4.7642e-05
-3.74044e-10
-3.77417e-08
4.76802e-05
-2.09671e-10
-3.81826e-08
4.77189e-05
-3.62143e-11
-3.84517e-08
4.77579e-05
1.02039e-11
-3.86134e-08
4.77972e-05
6.25298e-12
-3.88511e-08
4.78367e-05
7.52055e-11
-3.94585e-08
4.7877e-05
1.8764e-10
-4.02397e-08
4.79179e-05
2.7734e-10
-4.08697e-08
4.79594e-05
2.52967e-10
-4.13703e-08
4.80012e-05
1.70024e-10
-4.19315e-08
4.80431e-05
4.9384e-11
-4.24277e-08
4.80849e-05
-1.12377e-10
-4.24087e-08
4.81267e-05
-3.09076e-10
-4.20987e-08
4.81689e-05
-2.97082e-10
-4.18478e-08
4.82114e-05
4.46418e-11
-4.19669e-08
4.82545e-05
3.58549e-10
-4.24963e-08
4.82979e-05
2.84626e-10
-4.30719e-08
4.83418e-05
-3.12231e-10
-4.34434e-08
4.83859e-05
-8.60314e-10
-4.37263e-08
4.84303e-05
-9.78834e-10
-4.40214e-08
4.8475e-05
-6.60112e-10
-4.45932e-08
4.85201e-05
-2.50965e-10
-4.53138e-08
4.85655e-05
-1.29005e-10
-4.56684e-08
4.86112e-05
-1.8324e-10
-4.5727e-08
4.86569e-05
-6.95283e-11
-4.57439e-08
4.87025e-05
2.71443e-10
-4.57987e-08
5.57348e-10
-4.58793e-08
4.73514e-05
-2.70701e-10
-3.23132e-08
4.73852e-05
-1.4052e-10
-3.3231e-08
4.74203e-05
4.55662e-10
-3.46922e-08
4.74564e-05
9.63065e-10
-3.59639e-08
4.74933e-05
1.09246e-09
-3.68445e-08
4.75305e-05
8.70312e-10
-3.73133e-08
4.75677e-05
3.62096e-10
-3.74593e-08
4.76051e-05
-1.11544e-10
-3.76297e-08
4.76429e-05
-1.85338e-10
-3.80355e-08
4.76812e-05
-1.69829e-12
-3.84198e-08
4.77197e-05
1.62717e-10
-3.87656e-08
4.77586e-05
9.45605e-11
-3.89443e-08
4.77977e-05
-1.2038e-10
-3.89583e-08
4.78372e-05
-1.99844e-10
-3.92277e-08
4.78775e-05
-2.94454e-11
-4.00234e-08
4.79184e-05
2.50956e-10
-4.08957e-08
4.79598e-05
3.6512e-10
-4.15098e-08
4.80016e-05
2.75646e-10
-4.18289e-08
4.80435e-05
7.62557e-11
-4.19096e-08
4.80854e-05
-1.05395e-10
-4.19018e-08
4.81274e-05
-1.19359e-10
-4.21416e-08
4.81696e-05
5.86135e-11
-4.25579e-08
4.82121e-05
2.82516e-10
-4.27474e-08
4.82549e-05
3.25314e-10
-4.28152e-08
4.82982e-05
7.20354e-11
-4.30523e-08
4.8342e-05
-4.7256e-10
-4.3519e-08
4.8386e-05
-9.41123e-10
-4.3972e-08
4.84303e-05
-1.14468e-09
-4.41198e-08
4.84749e-05
-1.02495e-09
-4.42364e-08
4.85201e-05
-6.58909e-10
-4.47223e-08
4.85656e-05
-1.95544e-10
-4.54665e-08
4.86114e-05
2.03778e-10
-4.61153e-08
4.86571e-05
4.68337e-10
-4.62775e-08
4.87027e-05
5.88611e-10
-4.59388e-08
5.63753e-10
-4.5564e-08
4.73503e-05
-4.65374e-10
-3.26365e-08
4.73842e-05
5.14197e-11
-3.4112e-08
4.74193e-05
8.53514e-10
-3.55223e-08
4.74555e-05
1.29046e-09
-3.64791e-08
4.74924e-05
1.25655e-09
-3.70807e-08
4.75298e-05
9.6985e-10
-3.74393e-08
4.75671e-05
5.62437e-10
-3.76046e-08
4.76046e-05
1.5382e-10
-3.77942e-08
4.76425e-05
-7.23519e-11
-3.79994e-08
4.76807e-05
-1.8077e-10
-3.80432e-08
4.77194e-05
-1.99234e-10
-3.82555e-08
4.77584e-05
-1.86992e-10
-3.86592e-08
4.77975e-05
-1.20059e-10
-3.91532e-08
4.7837e-05
4.01212e-11
-3.97307e-08
4.78772e-05
2.16129e-10
-4.03891e-08
4.7918e-05
2.49151e-10
-4.08585e-08
4.79595e-05
1.4008e-10
-4.12163e-08
4.80014e-05
2.53484e-11
-4.15867e-08
4.80434e-05
5.32136e-11
-4.19621e-08
4.80853e-05
2.27732e-10
-4.22482e-08
4.81272e-05
3.05923e-10
-4.23356e-08
4.81694e-05
8.18091e-11
-4.22011e-08
4.8212e-05
-2.52646e-10
-4.20287e-08
4.8255e-05
-4.02714e-10
-4.22179e-08
4.82984e-05
-4.18551e-10
-4.28633e-08
4.83421e-05
-5.39881e-10
-4.3679e-08
4.83862e-05
-7.45121e-10
-4.43043e-08
4.84305e-05
-8.46689e-10
-4.45967e-08
4.84751e-05
-6.98781e-10
-4.48424e-08
4.852e-05
-3.91928e-10
-4.52161e-08
4.85654e-05
-4.27823e-11
-4.54965e-08
4.86111e-05
2.25033e-10
-4.56681e-08
4.86569e-05
4.15293e-10
-4.57357e-08
4.87026e-05
5.76429e-10
-4.56966e-08
6.77277e-10
-4.57125e-08
4.73491e-05
-8.18014e-10
-3.23953e-08
4.73831e-05
-3.49584e-10
-3.35666e-08
4.74184e-05
6.85114e-10
-3.51067e-08
4.74547e-05
1.28967e-09
-3.63752e-08
4.74919e-05
1.27659e-09
-3.72109e-08
4.75296e-05
7.58979e-10
-3.74572e-08
4.75674e-05
1.77508e-10
-3.73791e-08
4.76052e-05
8.24721e-11
-3.77695e-08
4.76433e-05
4.07886e-10
-3.85788e-08
4.76815e-05
6.38396e-10
-3.90648e-08
4.772e-05
5.0227e-10
-3.91172e-08
4.77586e-05
1.50916e-11
-3.887e-08
4.77976e-05
-4.12298e-10
-3.86715e-08
4.7837e-05
-4.51493e-10
-3.89496e-08
4.78773e-05
-2.06617e-10
-3.97912e-08
4.79182e-05
2.21899e-11
-4.07141e-08
4.79597e-05
3.55275e-11
-4.13529e-08
4.80016e-05
-5.83814e-11
-4.17413e-08
4.80436e-05
-1.60664e-12
-4.19536e-08
4.80856e-05
2.50691e-10
-4.20198e-08
4.81276e-05
4.11656e-10
-4.21167e-08
4.81699e-05
2.80891e-10
-4.2453e-08
4.82125e-05
-2.25231e-10
-4.26082e-08
4.82554e-05
-5.76891e-10
-4.26779e-08
4.82986e-05
-6.53342e-10
-4.29332e-08
4.83421e-05
-6.54885e-10
-4.34332e-08
4.83861e-05
-6.46187e-10
-4.40568e-08
4.84303e-05
-6.28913e-10
-4.44292e-08
4.84748e-05
-5.14287e-10
-4.46787e-08
4.85198e-05
-3.07047e-10
-4.50561e-08
4.85652e-05
-1.6298e-12
-4.54183e-08
4.86109e-05
3.47969e-10
-4.57837e-08
4.86567e-05
5.55006e-10
-4.59144e-08
4.87024e-05
6.03104e-10
-4.57112e-08
5.08293e-10
-4.54312e-08
4.73483e-05
-7.68251e-10
-3.28297e-08
4.73822e-05
-4.36487e-10
-3.38404e-08
4.74175e-05
4.28925e-10
-3.49498e-08
4.74538e-05
9.62951e-10
-3.59717e-08
4.74911e-05
9.5968e-10
-3.68835e-08
4.75288e-05
5.23886e-10
-3.75163e-08
4.75666e-05
3.37757e-11
-3.77039e-08
4.76045e-05
-9.79219e-11
-3.77181e-08
4.76427e-05
1.15808e-10
-3.78631e-08
4.7681e-05
5.06305e-10
-3.82132e-08
4.77196e-05
7.01684e-10
-3.8798e-08
4.77584e-05
5.11721e-10
-3.93596e-08
4.77975e-05
4.36979e-11
-3.95679e-08
4.78371e-05
-4.42324e-10
-3.95659e-08
4.78774e-05
-6.64142e-10
-3.98143e-08
4.79185e-05
-5.55887e-10
-4.04284e-08
4.79601e-05
-3.71613e-10
-4.11431e-08
4.8002e-05
-1.52273e-10
-4.18025e-08
4.8044e-05
2.03911e-10
-4.22011e-08
4.80859e-05
5.6683e-10
-4.21962e-08
4.81277e-05
7.18319e-10
-4.21192e-08
4.81698e-05
4.99333e-10
-4.22843e-08
4.82123e-05
-3.40014e-10
-4.23653e-08
4.82551e-05
-1.01812e-09
-4.23969e-08
4.82984e-05
-1.14503e-09
-4.27157e-08
4.8342e-05
-8.48042e-10
-4.34134e-08
4.8386e-05
-3.26118e-10
-4.432e-08
4.84302e-05
-4.30885e-11
-4.48149e-08
4.84747e-05
-8.30626e-11
-4.4894e-08
4.85196e-05
-1.52971e-10
-4.50539e-08
4.8565e-05
1.80815e-11
-4.53258e-08
4.86106e-05
3.63643e-10
-4.56265e-08
4.86564e-05
5.66157e-10
-4.57448e-08
4.8702e-05
5.95604e-10
-4.56478e-08
4.60608e-10
-4.55305e-08
4.73485e-05
-1.72156e-10
-3.33567e-08
4.73823e-05
-1.05219e-10
-3.41703e-08
4.74175e-05
1.77761e-10
-3.48733e-08
4.74538e-05
4.02783e-10
-3.57299e-08
4.74911e-05
3.87732e-10
-3.66698e-08
4.75289e-05
1.88938e-10
-3.74818e-08
4.75668e-05
-2.41986e-11
-3.78456e-08
4.76047e-05
-8.81692e-11
-3.79303e-08
4.76428e-05
6.23222e-11
-3.80818e-08
4.76811e-05
5.06397e-10
-3.82809e-08
4.77196e-05
8.60566e-10
-3.86732e-08
4.77584e-05
9.38355e-10
-3.92391e-08
4.77975e-05
6.67684e-10
-3.97403e-08
4.78371e-05
1.37298e-11
-4.00408e-08
4.78774e-05
-5.74621e-10
-4.03904e-08
4.79185e-05
-6.86204e-10
-4.08641e-08
4.796e-05
-5.84112e-10
-4.12814e-08
4.80018e-05
-3.47475e-10
-4.16336e-08
4.80438e-05
5.49399e-11
-4.18164e-08
4.80856e-05
3.53172e-10
-4.16559e-08
4.81275e-05
4.13712e-10
-4.15018e-08
4.81696e-05
1.97571e-10
-4.1827e-08
4.82122e-05
-3.90796e-10
-4.24953e-08
4.82551e-05
-8.05866e-10
-4.3066e-08
4.82983e-05
-8.97047e-10
-4.33944e-08
4.83418e-05
-7.43159e-10
-4.3608e-08
4.83857e-05
-3.4063e-10
-4.39172e-08
4.843e-05
-7.55744e-11
-4.42195e-08
4.84746e-05
2.78128e-11
-4.46852e-08
4.85196e-05
2.01885e-10
-4.53577e-08
4.8565e-05
4.68622e-10
-4.57829e-08
4.86106e-05
6.29817e-10
-4.58267e-08
4.86562e-05
5.43907e-10
-4.56202e-08
4.87018e-05
3.01883e-10
-4.53063e-08
1.25798e-10
-4.52359e-08
4.73483e-05
-1.6621e-11
-3.29402e-08
4.73822e-05
-5.73922e-11
-3.38939e-08
4.74173e-05
-1.39328e-11
-3.48952e-08
4.74535e-05
3.23299e-11
-3.58332e-08
4.74906e-05
-4.89288e-11
-3.66751e-08
4.75284e-05
-1.54651e-10
-3.73722e-08
4.75663e-05
-2.01985e-10
-3.77112e-08
4.76042e-05
-7.24898e-11
-3.79687e-08
4.76424e-05
1.13642e-10
-3.82316e-08
4.76808e-05
3.08667e-10
-3.81845e-08
4.77194e-05
5.28078e-10
-3.82975e-08
4.77583e-05
7.55784e-10
-3.87342e-08
4.77975e-05
8.02079e-10
-3.93067e-08
4.7837e-05
4.0183e-10
-3.99078e-08
4.78772e-05
-3.43437e-10
-4.0404e-08
4.79181e-05
-7.88366e-10
-4.07505e-08
4.79595e-05
-8.02611e-10
-4.11678e-08
4.80013e-05
-5.48304e-10
-4.15956e-08
4.80433e-05
-8.60389e-11
-4.18664e-08
4.80852e-05
3.02227e-10
-4.18668e-08
4.81271e-05
3.92362e-10
-4.17765e-08
4.81692e-05
9.24532e-11
-4.19887e-08
4.82117e-05
-5.00093e-10
-4.24254e-08
4.82547e-05
-9.00875e-10
-4.28498e-08
4.8298e-05
-9.70674e-10
-4.325e-08
4.83417e-05
-6.95957e-10
-4.37097e-08
4.83858e-05
-1.65425e-10
-4.4205e-08
4.84301e-05
2.27292e-10
-4.46021e-08
4.84747e-05
3.93555e-10
-4.49514e-08
4.85197e-05
4.82522e-10
-4.52884e-08
4.85651e-05
6.10161e-10
-4.5483e-08
4.86107e-05
6.59795e-10
-4.55833e-08
4.86563e-05
4.52168e-10
-4.55435e-08
4.87019e-05
6.65352e-11
-4.53694e-08
-1.34937e-10
-4.53115e-08
4.73486e-05
6.81535e-10
-3.33642e-08
4.73823e-05
6.09542e-10
-3.43357e-08
4.74171e-05
1.71833e-10
-3.50282e-08
4.74531e-05
-2.90393e-10
-3.5638e-08
4.74901e-05
-5.35869e-10
-3.64476e-08
4.75277e-05
-4.8172e-10
-3.72728e-08
4.75655e-05
-2.69889e-10
-3.77575e-08
4.76034e-05
-3.8387e-11
-3.79809e-08
4.76417e-05
1.15181e-10
-3.82342e-08
4.76801e-05
2.08078e-10
-3.8369e-08
4.77189e-05
2.55902e-10
-3.84434e-08
4.77579e-05
3.90882e-10
-3.86437e-08
4.77972e-05
4.35071e-10
-3.89501e-08
4.78369e-05
3.95907e-10
-3.97337e-08
4.78774e-05
1.45883e-11
-4.07557e-08
4.79184e-05
-4.58323e-10
-4.13285e-08
4.79599e-05
-6.85916e-10
-4.15645e-08
4.80017e-05
-6.72336e-10
-4.16791e-08
4.80437e-05
-3.61892e-10
-4.17576e-08
4.80856e-05
-6.43168e-11
-4.16062e-08
4.81275e-05
1.61587e-11
-4.14763e-08
4.81697e-05
-4.53683e-11
-4.19696e-08
4.82122e-05
-1.81571e-10
-4.28066e-08
4.82551e-05
-3.18952e-10
-4.34269e-08
4.82983e-05
-4.52926e-10
-4.37185e-08
4.83418e-05
-4.48829e-10
-4.3778e-08
4.83858e-05
-2.09607e-10
-4.38806e-08
4.843e-05
1.81219e-10
-4.42066e-08
4.84746e-05
5.67462e-10
-4.47617e-08
4.85196e-05
7.95705e-10
-4.53182e-08
4.8565e-05
8.70418e-10
-4.55519e-08
4.86105e-05
6.98526e-10
-4.55334e-08
4.86561e-05
2.13948e-10
-4.53881e-08
4.87018e-05
-2.49536e-10
-4.53295e-08
-3.85337e-10
-4.5403e-08
4.73479e-05
1.09833e-09
-3.31701e-08
4.73817e-05
8.38949e-10
-3.40013e-08
4.74167e-05
-1.61117e-10
-3.46693e-08
4.74528e-05
-8.51742e-10
-3.55355e-08
4.74898e-05
-8.60387e-10
-3.66922e-08
4.75275e-05
-3.79284e-10
-3.77217e-08
4.75652e-05
1.66466e-10
-3.82131e-08
4.76031e-05
2.40232e-10
-3.81663e-08
4.76413e-05
-8.95069e-11
-3.79882e-08
4.76797e-05
-3.66809e-10
-3.78993e-08
4.77185e-05
-2.23804e-10
-3.82868e-08
4.77576e-05
3.3919e-10
-3.89691e-08
4.77968e-05
6.82321e-10
-3.94491e-08
4.78363e-05
5.74755e-10
-3.97681e-08
4.78767e-05
-1.06079e-10
-4.01802e-08
4.79177e-05
-6.49188e-10
-4.07892e-08
4.79592e-05
-6.37197e-10
-4.15257e-08
4.8001e-05
-3.14704e-10
-4.21315e-08
4.80429e-05
-5.0704e-11
-4.22268e-08
4.80847e-05
-7.19865e-11
-4.18253e-08
4.81265e-05
-2.4528e-10
-4.14889e-08
4.81686e-05
-3.3429e-10
-4.17857e-08
4.82112e-05
-3.07775e-10
-4.24258e-08
4.82542e-05
-3.03847e-10
-4.30151e-08
4.82976e-05
-3.61584e-10
-4.34963e-08
4.83413e-05
-3.39131e-10
-4.38009e-08
4.83853e-05
-1.01978e-10
-4.40868e-08
4.84295e-05
3.59202e-10
-4.43992e-08
4.84741e-05
7.46916e-10
-4.47247e-08
4.85191e-05
8.90807e-10
-4.51035e-08
4.85645e-05
8.86098e-10
-4.53612e-08
4.86101e-05
6.90675e-10
-4.55792e-08
4.86558e-05
1.72453e-10
-4.56643e-08
4.87015e-05
-3.03455e-10
-4.56265e-08
-4.39779e-10
-4.5599e-08
4.73477e-05
1.027e-09
-3.27269e-08
4.73816e-05
7.48584e-10
-3.38123e-08
4.74168e-05
-3.56938e-10
-3.49591e-08
4.7453e-05
-1.06029e-09
-3.60745e-08
4.74903e-05
-1.05438e-09
-3.70731e-08
4.75283e-05
-6.36941e-10
-3.76658e-08
4.75663e-05
-1.39271e-10
-3.78024e-08
4.76045e-05
2.22905e-10
-3.81461e-08
4.76428e-05
4.76859e-10
-3.8868e-08
4.76811e-05
5.28423e-10
-3.92035e-08
4.77195e-05
4.57018e-10
-3.90536e-08
4.7758e-05
2.74751e-10
-3.85329e-08
4.7797e-05
8.03051e-11
-3.83214e-08
4.78365e-05
2.90202e-11
-3.89412e-08
4.78768e-05
-9.47778e-11
-4.02811e-08
4.79178e-05
-2.11782e-10
-4.13593e-08
4.79591e-05
-2.45506e-10
-4.17661e-08
4.80008e-05
-2.55021e-10
-4.17564e-08
4.80427e-05
-3.32188e-10
-4.16382e-08
4.80846e-05
-4.36752e-10
-4.15394e-08
4.81265e-05
-4.3834e-10
-4.16458e-08
4.81687e-05
-3.2734e-10
-4.2129e-08
4.82113e-05
-1.87943e-10
-4.26474e-08
4.82542e-05
-1.83259e-10
-4.30497e-08
4.82976e-05
-2.53844e-10
-4.34442e-08
4.83412e-05
-2.3398e-10
-4.37455e-08
4.83852e-05
-2.07331e-11
-4.4022e-08
4.84294e-05
3.89737e-10
-4.42431e-08
4.8474e-05
7.77501e-10
-4.46022e-08
4.8519e-05
9.88611e-10
-4.51154e-08
4.85643e-05
9.81063e-10
-4.54105e-08
4.86099e-05
7.24344e-10
-4.55986e-08
4.86557e-05
2.25921e-10
-4.57588e-08
4.87014e-05
-2.45571e-10
-4.57797e-08
-4.64189e-10
-4.57071e-08
4.7349e-05
8.21473e-10
-3.26015e-08
4.7383e-05
3.07997e-10
-3.35399e-08
4.74182e-05
-6.97724e-10
-3.48694e-08
4.74544e-05
-1.11761e-09
-3.6145e-08
4.74914e-05
-9.14189e-10
-3.70719e-08
4.75288e-05
-4.12656e-10
-3.75852e-08
4.75662e-05
9.42277e-11
-3.77339e-08
4.7604e-05
3.25147e-10
-3.78291e-08
4.76421e-05
4.03978e-10
-3.80863e-08
4.76806e-05
3.98454e-10
-3.83408e-08
4.77193e-05
3.43038e-10
-3.86608e-08
4.77583e-05
1.51323e-10
-3.88921e-08
4.77975e-05
-1.27634e-11
-3.90885e-08
4.78371e-05
-9.13148e-11
-3.94492e-08
4.78774e-05
-1.60731e-10
-4.0196e-08
4.79183e-05
-1.73851e-10
-4.09316e-08
4.79597e-05
-1.24423e-10
-4.1464e-08
4.80014e-05
-1.25549e-10
-4.17605e-08
4.80432e-05
-2.77529e-10
-4.18663e-08
4.80849e-05
-5.14322e-10
-4.17316e-08
4.81268e-05
-6.4605e-10
-4.15675e-08
4.81689e-05
-6.18206e-10
-4.18106e-08
4.82115e-05
-4.27523e-10
-4.23222e-08
4.82545e-05
-1.81948e-10
-4.29948e-08
4.82979e-05
3.59148e-11
-4.3682e-08
4.83416e-05
2.01625e-10
-4.40899e-08
4.83855e-05
3.91895e-10
-4.42947e-08
4.84296e-05
6.33164e-10
-4.43556e-08
4.84741e-05
7.78623e-10
-4.44753e-08
4.85191e-05
7.47488e-10
-4.47369e-08
4.85645e-05
5.53696e-10
-4.49543e-08
4.86102e-05
3.54068e-10
-4.53318e-08
4.86561e-05
2.30179e-10
-4.58366e-08
4.87019e-05
6.69448e-11
-4.6086e-08
-1.5868e-10
-4.59938e-08
4.73503e-05
5.41038e-10
-3.25545e-08
4.73842e-05
3.91211e-10
-3.3958e-08
4.74192e-05
-2.36999e-10
-3.54736e-08
4.74552e-05
-8.41977e-10
-3.63038e-08
4.7492e-05
-1.02806e-09
-3.66716e-08
4.75293e-05
-6.69249e-10
-3.7009e-08
4.75667e-05
5.43164e-11
-3.74095e-08
4.76045e-05
5.20934e-10
-3.79106e-08
4.76426e-05
5.379e-10
-3.82716e-08
4.7681e-05
3.76065e-10
-3.83823e-08
4.77196e-05
2.25903e-10
-3.85659e-08
4.77586e-05
1.64231e-10
-3.89446e-08
4.77977e-05
1.69389e-10
-3.93136e-08
4.78373e-05
1.33765e-10
-3.978e-08
4.78776e-05
-9.28631e-11
-4.03526e-08
4.79186e-05
-2.65474e-10
-4.08456e-08
4.79599e-05
-2.95153e-10
-4.12123e-08
4.80016e-05
-2.50076e-10
-4.15265e-08
4.80434e-05
-2.90767e-10
-4.17946e-08
4.80852e-05
-4.28268e-10
-4.18867e-08
4.8127e-05
-5.22473e-10
-4.18791e-08
4.81691e-05
-5.66269e-10
-4.21071e-08
4.82116e-05
-5.10505e-10
-4.24137e-08
4.82546e-05
-2.92568e-10
-4.28339e-08
4.8298e-05
8.07223e-11
-4.34222e-08
4.83416e-05
4.56714e-10
-4.39117e-08
4.83856e-05
6.70727e-10
-4.4192e-08
4.84297e-05
7.49151e-10
-4.42911e-08
4.84743e-05
7.60255e-10
-4.45135e-08
4.85193e-05
6.8575e-10
-4.49475e-08
4.85648e-05
3.74853e-10
-4.52062e-08
4.86105e-05
-6.36924e-12
-4.534e-08
4.86564e-05
-2.0824e-10
-4.54372e-08
4.87023e-05
-2.33681e-10
-4.55588e-08
-1.37045e-10
-4.58101e-08
4.73495e-05
7.46049e-11
-3.21987e-08
4.73833e-05
-6.38413e-11
-3.33419e-08
4.74184e-05
-1.19086e-10
-3.51954e-08
4.74545e-05
-1.82658e-10
-3.6785e-08
4.74913e-05
-2.78952e-10
-3.75564e-08
4.75286e-05
-3.55695e-10
-3.75457e-08
4.75661e-05
-1.74172e-10
-3.72373e-08
4.76039e-05
1.22026e-10
-3.74108e-08
4.76422e-05
1.83453e-10
-3.79412e-08
4.76807e-05
6.15291e-11
-3.82493e-08
4.77195e-05
-2.96694e-11
-3.85469e-08
4.77585e-05
8.28533e-11
-3.89522e-08
4.77978e-05
2.73431e-10
-3.93337e-08
4.78375e-05
2.99476e-10
-3.98179e-08
4.78779e-05
-1.36465e-12
-4.04665e-08
4.79189e-05
-1.72147e-10
-4.10756e-08
4.79602e-05
-1.21718e-10
-4.15232e-08
4.80018e-05
1.33893e-11
-4.18044e-08
4.80434e-05
-3.68138e-11
-4.19151e-08
4.80851e-05
-4.08245e-10
-4.1708e-08
4.81269e-05
-7.08994e-10
-4.15344e-08
4.8169e-05
-7.8166e-10
-4.18428e-08
4.82115e-05
-5.98375e-10
-4.24042e-08
4.82544e-05
-2.27087e-10
-4.29805e-08
4.82977e-05