/*--------------------------------*- C++ -*----------------------------------*\
  =========                 |
  \\      /  F ield         | OpenFOAM: The Open Source CFD Toolbox
   \\    /   O peration     | Website:  https://openfoam.org
    \\  /    A nd           | Version:  9
     \\/     M anipulation  |
\*---------------------------------------------------------------------------*/
FoamFile
{
    format      ascii;
    class       volVectorField;
    location    "1200";
    object      U;
}
// * * * * * * * * * * * * * * * * * * * * * * * * * * * * * * * * * * * * * //

dimensions      [0 1 -1 0 0 0 0];

internalField   nonuniform List<vector> 
82440
(
(4.73289 -0.000122946 8.19489e-06)
(4.73623 -0.000126244 2.25887e-05)
(4.73968 -0.000130296 3.16425e-05)
(4.74325 -0.000133312 3.86894e-05)
(4.7469 -0.000134639 3.47097e-05)
(4.75061 -0.000133987 1.96472e-05)
(4.75433 -0.000131999 7.26752e-06)
(4.75806 -0.000131974 9.27721e-06)
(4.76184 -0.000134527 1.86809e-05)
(4.76566 -0.000137252 2.28067e-05)
(4.76951 -0.000138031 2.22802e-05)
(4.77338 -0.000136732 2.37636e-05)
(4.77729 -0.000135096 2.58029e-05)
(4.78122 -0.000135145 2.21746e-05)
(4.78521 -0.000136929 6.46843e-06)
(4.78927 -0.000138969 -1.6236e-05)
(4.7934 -0.000140474 -2.85157e-05)
(4.79756 -0.000141832 -2.89248e-05)
(4.80176 -0.000142685 -2.63975e-05)
(4.80596 -0.000142883 -2.47528e-05)
(4.81015 -0.000143181 -2.52842e-05)
(4.81436 -0.000144242 -2.67223e-05)
(4.81858 -0.000144543 -2.66311e-05)
(4.82283 -0.000142977 -2.34653e-05)
(4.82712 -0.000141276 -1.76629e-05)
(4.83144 -0.000141322 -1.35629e-05)
(4.83582 -0.000143612 -7.17e-06)
(4.84023 -0.000146759 5.2287e-06)
(4.84468 -0.000149588 1.79765e-05)
(4.84918 -0.000151363 2.12564e-05)
(4.85374 -0.000152187 1.02226e-05)
(4.85831 -0.000152676 -5.03996e-06)
(4.86289 -0.000152563 -8.67563e-06)
(4.86746 -0.000152061 2.10385e-06)
(4.87202 -0.000151858 1.88798e-05)
(4.73287 -0.000124144 -1.44595e-06)
(4.73621 -0.000127107 1.05951e-05)
(4.73966 -0.000129573 2.45357e-05)
(4.74324 -0.000132006 3.65353e-05)
(4.74691 -0.000134413 4.0545e-05)
(4.75063 -0.000135317 3.49033e-05)
(4.75435 -0.000134542 2.28497e-05)
(4.75806 -0.000134083 4.26218e-06)
(4.7618 -0.000134335 -7.48716e-06)
(4.76561 -0.000134268 -5.38499e-06)
(4.76946 -0.000134487 1.41601e-05)
(4.77336 -0.000135244 3.45224e-05)
(4.77728 -0.00013633 3.91218e-05)
(4.78122 -0.000137617 2.97401e-05)
(4.7852 -0.000138814 2.8428e-06)
(4.78925 -0.000139554 -2.06847e-05)
(4.79337 -0.000140073 -2.99065e-05)
(4.79754 -0.000141534 -3.35494e-05)
(4.80173 -0.000143303 -3.60358e-05)
(4.80592 -0.000143694 -3.72965e-05)
(4.81011 -0.000142823 -3.38326e-05)
(4.81431 -0.000141923 -2.7414e-05)
(4.81856 -0.000141948 -1.94959e-05)
(4.82284 -0.000142888 -6.47974e-06)
(4.82715 -0.000144055 3.0227e-06)
(4.83147 -0.000144739 4.22359e-06)
(4.83583 -0.000144904 2.41801e-06)
(4.84024 -0.000145451 5.98874e-06)
(4.8447 -0.00014777 1.2708e-05)
(4.84921 -0.000151177 1.15873e-05)
(4.85378 -0.00015355 -1.45433e-06)
(4.85835 -0.000153401 -1.62631e-05)
(4.86291 -0.000151549 -1.76204e-05)
(4.86748 -0.000150074 -9.76717e-06)
(4.87205 -0.000150495 5.91087e-06)
(4.73276 -0.000123682 1.88294e-05)
(4.73613 -0.000124711 2.43916e-05)
(4.73961 -0.000127961 2.92953e-05)
(4.74321 -0.00013284 2.45017e-05)
(4.74689 -0.000136359 8.54287e-06)
(4.75061 -0.000136607 -4.37154e-06)
(4.75431 -0.000134334 -6.11604e-06)
(4.75801 -0.000132607 8.93304e-07)
(4.76175 -0.000132852 1.05088e-05)
(4.76556 -0.000134042 1.50209e-05)
(4.76942 -0.000136144 1.83191e-05)
(4.77331 -0.000137886 2.23102e-05)
(4.77722 -0.000138217 2.21653e-05)
(4.78115 -0.000137635 1.44182e-05)
(4.78513 -0.000137328 7.04441e-06)
(4.78918 -0.000137276 4.93797e-06)
(4.79331 -0.000137952 -4.41945e-07)
(4.79748 -0.00013962 -2.08551e-05)
(4.80168 -0.000141996 -4.70004e-05)
(4.80588 -0.00014359 -5.75618e-05)
(4.81008 -0.000144223 -5.10667e-05)
(4.81429 -0.000144253 -3.33716e-05)
(4.81854 -0.000143855 -1.1478e-05)
(4.82282 -0.000142936 3.29131e-06)
(4.82712 -0.000142738 1.18952e-05)
(4.83146 -0.00014365 1.85717e-05)
(4.83583 -0.000145158 2.21938e-05)
(4.84025 -0.00014716 2.23024e-05)
(4.84472 -0.000149783 1.53669e-05)
(4.84924 -0.00015206 -4.58607e-06)
(4.8538 -0.000152892 -2.01254e-05)
(4.85837 -0.000152215 -2.21284e-05)
(4.86294 -0.000150915 -1.27736e-05)
(4.86751 -0.000150137 4.06391e-06)
(4.87208 -0.000150509 1.14422e-05)
(4.73271 -0.000125276 2.5065e-05)
(4.73606 -0.0001269 5.70467e-05)
(4.73951 -0.000129748 6.1665e-05)
(4.7431 -0.000132691 4.56672e-05)
(4.74677 -0.000134556 8.90876e-06)
(4.7505 -0.000134233 -7.60989e-06)
(4.75422 -0.000132719 -5.28383e-06)
(4.75795 -0.000133301 -1.52945e-06)
(4.76171 -0.000135292 -5.84705e-06)
(4.76553 -0.000136134 -9.60771e-06)
(4.76939 -0.000135768 -7.23377e-06)
(4.77329 -0.000135462 2.66335e-06)
(4.77722 -0.000136069 1.25611e-05)
(4.78117 -0.000137027 2.14408e-05)
(4.78515 -0.000138 2.94933e-05)
(4.78921 -0.000139374 3.3498e-05)
(4.79334 -0.00014139 2.66335e-05)
(4.7975 -0.000142979 -1.23809e-05)
(4.80168 -0.000143013 -5.6354e-05)
(4.80587 -0.000141765 -7.05583e-05)
(4.81006 -0.000140587 -6.4826e-05)
(4.81429 -0.000141138 -3.97945e-05)
(4.81855 -0.000142409 1.0707e-06)
(4.82285 -0.000143535 2.8607e-05)
(4.82716 -0.000144535 3.40351e-05)
(4.8315 -0.000145612 3.0446e-05)
(4.83588 -0.000146746 1.96494e-05)
(4.84029 -0.000148268 4.96809e-06)
(4.84475 -0.00015044 -7.84806e-06)
(4.84926 -0.000152089 -1.6365e-05)
(4.85381 -0.00015205 -1.80505e-05)
(4.85837 -0.000150857 -9.76051e-06)
(4.86294 -0.000149783 6.81253e-06)
(4.86751 -0.00014971 1.507e-05)
(4.87209 -0.000150796 1.23826e-05)
(4.73279 -0.000123796 2.06484e-05)
(4.73615 -0.000129163 1.62369e-05)
(4.73961 -0.000134598 2.49793e-06)
(4.74317 -0.00013646 -7.92169e-06)
(4.74681 -0.000135666 -3.95258e-06)
(4.75051 -0.000133875 1.05064e-05)
(4.75422 -0.000132555 1.47987e-05)
(4.75794 -0.000132866 5.72693e-06)
(4.7617 -0.00013358 -7.64184e-06)
(4.76551 -0.000133766 -2.98103e-06)
(4.76937 -0.000134938 1.88819e-05)
(4.77326 -0.000136142 2.99048e-05)
(4.77718 -0.000136499 2.77315e-05)
(4.78112 -0.000136404 1.79212e-05)
(4.7851 -0.000137591 7.01131e-06)
(4.78916 -0.000140241 -1.13759e-06)
(4.79328 -0.000142516 -1.20977e-05)
(4.79744 -0.000142499 -2.29571e-05)
(4.80163 -0.000140748 -3.10345e-05)
(4.80583 -0.00013954 -3.48277e-05)
(4.81003 -0.000140235 -2.78693e-05)
(4.81426 -0.000142456 -1.23047e-05)
(4.81852 -0.000144344 5.749e-06)
(4.82282 -0.000145191 1.71257e-05)
(4.82714 -0.000145714 1.89255e-05)
(4.83148 -0.000145911 1.49004e-05)
(4.83586 -0.00014599 7.14079e-06)
(4.84027 -0.000146646 -4.25048e-06)
(4.84473 -0.000148633 -1.65563e-05)
(4.84925 -0.000151027 -2.17647e-05)
(4.85379 -0.000152064 -1.40758e-05)
(4.85836 -0.000151851 4.98258e-06)
(4.86292 -0.000151477 1.54934e-05)
(4.86749 -0.000151195 1.45957e-05)
(4.87206 -0.000151167 -7.35619e-07)
(4.73269 -0.000127722 -2.21063e-05)
(4.73601 -0.000129445 -4.35749e-05)
(4.73944 -0.000130135 -4.24946e-05)
(4.74302 -0.000130128 -2.76319e-05)
(4.74671 -0.000131446 -2.16642e-06)
(4.75044 -0.000133729 1.25455e-05)
(4.75416 -0.000134924 1.17704e-05)
(4.75788 -0.00013472 8.29002e-06)
(4.76163 -0.000133652 9.56214e-06)
(4.76545 -0.000133137 1.44522e-05)
(4.76933 -0.000135122 1.49679e-05)
(4.77323 -0.000137835 4.95551e-06)
(4.77716 -0.000139096 -3.73338e-06)
(4.78109 -0.000138933 6.35933e-07)
(4.78507 -0.000138572 1.63e-05)
(4.78912 -0.000138788 2.33406e-05)
(4.79325 -0.000139956 2.04984e-05)
(4.79743 -0.000141503 4.49551e-06)
(4.80163 -0.000142373 -1.96269e-05)
(4.80582 -0.000141919 -3.26667e-05)
(4.81001 -0.000140947 -3.45719e-05)
(4.81423 -0.000141684 -2.71323e-05)
(4.81849 -0.000143556 -6.2212e-06)
(4.82278 -0.000144722 1.60056e-05)
(4.82711 -0.00014506 2.60707e-05)
(4.83146 -0.000145359 3.00103e-05)
(4.83585 -0.000146201 2.74657e-05)
(4.84027 -0.000147663 1.4672e-05)
(4.84473 -0.000149248 -1.14988e-05)
(4.84924 -0.00015069 -2.86805e-05)
(4.85379 -0.000151531 -2.99116e-05)
(4.85836 -0.00015216 -1.94924e-05)
(4.86293 -0.000152085 2.40344e-06)
(4.8675 -0.000151142 1.79965e-05)
(4.87207 -0.000149867 1.79718e-05)
(4.73273 -0.000123003 -4.25133e-05)
(4.73609 -0.00012581 -4.16164e-05)
(4.73957 -0.000129937 -1.86286e-05)
(4.74316 -0.000133601 1.2825e-05)
(4.74683 -0.000135456 1.90469e-05)
(4.75054 -0.000134966 1.43206e-05)
(4.75425 -0.000133109 4.40268e-06)
(4.75797 -0.000132441 1.84996e-06)
(4.76173 -0.000133561 8.29621e-06)
(4.76554 -0.000135337 1.21196e-05)
(4.7694 -0.000136995 5.60149e-06)
(4.77329 -0.00013725 -8.20313e-06)
(4.7772 -0.000136078 -1.13011e-05)
(4.78114 -0.000135594 1.68294e-06)
(4.78512 -0.000137686 1.61705e-05)
(4.78919 -0.000140557 1.75187e-05)
(4.79332 -0.000142461 4.95921e-06)
(4.79749 -0.000142377 -5.38029e-06)
(4.80167 -0.000140567 -6.57479e-06)
(4.80586 -0.000139098 -4.33642e-06)
(4.81006 -0.000139429 -5.54692e-06)
(4.81428 -0.000142162 -9.409e-06)
(4.81854 -0.000144798 -4.70018e-06)
(4.82283 -0.000145723 1.40176e-05)
(4.82714 -0.000145267 3.07372e-05)
(4.83149 -0.000145049 3.40233e-05)
(4.83587 -0.000145974 2.15161e-05)
(4.84029 -0.000147752 -9.74547e-06)
(4.84475 -0.000149729 -2.72325e-05)
(4.84926 -0.000150947 -2.85938e-05)
(4.8538 -0.000150894 -1.81575e-05)
(4.85836 -0.000150337 4.9738e-06)
(4.86294 -0.000150091 2.10881e-05)
(4.86751 -0.000150447 2.40946e-05)
(4.87209 -0.000151086 1.94734e-05)
(4.7328 -0.000122606 -4.93689e-06)
(4.73613 -0.000125137 -3.54487e-05)
(4.73959 -0.000129577 -3.55246e-05)
(4.74318 -0.000133803 -2.31911e-05)
(4.74686 -0.000135861 -2.36571e-06)
(4.75057 -0.000135514 1.00294e-05)
(4.75429 -0.000133943 1.05545e-05)
(4.758 -0.000132859 9.6355e-06)
(4.76175 -0.000132673 1.19141e-05)
(4.76556 -0.000133126 1.35468e-05)
(4.76942 -0.000134801 7.30512e-06)
(4.77332 -0.00013657 -8.54524e-06)
(4.77725 -0.000137437 -2.00418e-05)
(4.78118 -0.000138602 -1.89584e-05)
(4.78516 -0.000140111 -6.71524e-06)
(4.78921 -0.000140254 1.75598e-05)
(4.79334 -0.000140075 3.66801e-05)
(4.79751 -0.000140076 4.20663e-05)
(4.80171 -0.000140694 3.81248e-05)
(4.80591 -0.000141476 1.89423e-05)
(4.8101 -0.000141934 -1.72704e-05)
(4.81431 -0.000142984 -3.60431e-05)
(4.81855 -0.000144161 -3.52947e-05)
(4.82283 -0.000145249 -1.43183e-05)
(4.82715 -0.000146557 2.17926e-05)
(4.83149 -0.000147265 3.63538e-05)
(4.83587 -0.000147052 3.33903e-05)
(4.84028 -0.000146448 1.6772e-05)
(4.84473 -0.000146935 -5.4844e-06)
(4.84924 -0.000148949 -1.6738e-05)
(4.85379 -0.000151006 -1.10288e-05)
(4.85836 -0.000152418 6.88849e-06)
(4.86293 -0.000152878 2.0065e-05)
(4.8675 -0.00015227 2.16983e-05)
(4.87207 -0.000151188 1.66796e-05)
(4.73278 -0.000123602 -5.60799e-06)
(4.7361 -0.000124402 -1.90189e-05)
(4.73957 -0.000128325 -3.03632e-05)
(4.74317 -0.000133314 -3.51416e-05)
(4.74686 -0.000136642 -3.09398e-05)
(4.75058 -0.000136677 -1.35724e-05)
(4.75429 -0.000134111 1.47719e-05)
(4.75801 -0.000132321 3.3213e-05)
(4.76176 -0.000132857 3.61593e-05)
(4.76558 -0.000135022 2.73174e-05)
(4.76944 -0.000137487 -3.92615e-06)
(4.77333 -0.000137948 -3.05793e-05)
(4.77724 -0.000136378 -3.42987e-05)
(4.78116 -0.000135049 -2.32714e-05)
(4.78515 -0.000136147 4.57602e-06)
(4.78922 -0.00013901 2.68403e-05)
(4.79335 -0.000142792 3.27491e-05)
(4.79751 -0.000144943 2.83398e-05)
(4.80168 -0.000144392 1.67753e-05)
(4.80585 -0.000141902 4.39602e-06)
(4.81003 -0.00013954 -1.11092e-05)
(4.81423 -0.00013954 -2.66299e-05)
(4.81848 -0.000141662 -3.17875e-05)
(4.82277 -0.000144424 -2.38773e-05)
(4.82709 -0.000146687 1.00041e-07)
(4.83144 -0.000147523 2.38322e-05)
(4.83583 -0.000147406 2.6809e-05)
(4.84024 -0.000147643 1.4024e-05)
(4.84469 -0.000149082 -7.96668e-06)
(4.84918 -0.000150467 -1.65186e-05)
(4.85372 -0.000150489 -1.44797e-05)
(4.85829 -0.00015043 -5.08402e-06)
(4.86287 -0.000151117 4.23579e-06)
(4.86745 -0.000151773 8.3754e-06)
(4.87202 -0.000152174 6.76241e-06)
(4.73284 -0.000123495 -6.72212e-06)
(4.73616 -0.000126651 -1.27886e-05)
(4.73959 -0.000129962 -2.68559e-05)
(4.74316 -0.000131973 -3.6525e-05)
(4.74683 -0.000133131 -3.19776e-05)
(4.75055 -0.000133763 -1.69296e-05)
(4.75427 -0.000133998 4.61032e-06)
(4.75799 -0.00013448 1.92275e-05)
(4.76174 -0.000135119 1.63901e-05)
(4.76554 -0.000135323 -4.92177e-06)
(4.76939 -0.000135622 -2.5298e-05)
(4.77328 -0.000135092 -2.95868e-05)
(4.77719 -0.000134686 -1.71994e-05)
(4.78113 -0.000135771 -5.42044e-07)
(4.78512 -0.000138944 -7.4071e-09)
(4.78918 -0.000142007 -9.7763e-06)
(4.7933 -0.000143529 -1.20143e-05)
(4.79745 -0.000143131 -1.08864e-07)
(4.80163 -0.000141756 2.44106e-05)
(4.80582 -0.000140141 3.13458e-05)
(4.81002 -0.000139552 2.23662e-05)
(4.81423 -0.000140676 -1.25722e-05)
(4.81848 -0.000142642 -3.95327e-05)
(4.82277 -0.000144884 -4.38424e-05)
(4.8271 -0.00014691 -3.31068e-05)
(4.83146 -0.000148103 -5.38028e-06)
(4.83585 -0.000147812 1.57046e-05)
(4.84025 -0.000146482 2.11541e-05)
(4.84468 -0.000145962 1.77137e-05)
(4.84917 -0.000147511 1.48363e-05)
(4.85371 -0.000149472 1.5865e-05)
(4.85828 -0.000150975 1.57179e-05)
(4.86286 -0.000151784 1.00139e-05)
(4.86743 -0.00015187 -5.21076e-07)
(4.872 -0.000151954 -9.63154e-06)
(4.73289 -0.000122501 -1.72385e-05)
(4.73621 -0.000125182 -3.891e-05)
(4.73966 -0.000129298 -4.81442e-05)
(4.74324 -0.000133368 -4.9585e-05)
(4.74691 -0.000135975 -4.08438e-05)
(4.75062 -0.000136062 -2.31245e-05)
(4.75434 -0.000134161 9.81824e-07)
(4.75805 -0.000132959 2.00205e-05)
(4.7618 -0.000133808 2.35469e-05)
(4.7656 -0.000134774 1.86889e-05)
(4.76945 -0.000134756 5.14025e-06)
(4.77333 -0.000134292 -7.23613e-06)
(4.77724 -0.00013434 -1.37367e-05)
(4.78118 -0.000135877 -1.61895e-05)
(4.78516 -0.000138062 -1.78444e-05)
(4.78922 -0.000139634 -1.75953e-05)
(4.79335 -0.000140938 -1.33085e-05)
(4.79753 -0.000142683 6.60576e-07)
(4.80172 -0.000144314 1.82137e-05)
(4.8059 -0.000144418 2.75395e-05)
(4.81007 -0.000142688 2.79454e-05)
(4.81426 -0.000140955 1.26759e-05)
(4.8185 -0.000140519 -1.69545e-05)
(4.82278 -0.000141858 -3.26281e-05)
(4.8271 -0.000144151 -2.43092e-05)
(4.83147 -0.000145189 8.33741e-06)
(4.83587 -0.000145412 3.56796e-05)
(4.84029 -0.000146024 4.05155e-05)
(4.84474 -0.000148072 3.17002e-05)
(4.84923 -0.000150686 2.09776e-05)
(4.85376 -0.000151783 1.76195e-05)
(4.85832 -0.000151556 1.66824e-05)
(4.86289 -0.000151226 7.04251e-06)
(4.86746 -0.000151561 -1.13918e-05)
(4.87202 -0.000152299 -2.18608e-05)
(4.73298 -0.000121732 7.48015e-06)
(4.7363 -0.000123171 -5.02702e-06)
(4.73974 -0.000126802 -3.40532e-05)
(4.74331 -0.000130558 -5.35381e-05)
(4.74697 -0.000133469 -5.38689e-05)
(4.75069 -0.000134753 -3.79842e-05)
(4.75441 -0.000134423 -9.41939e-06)
(4.75813 -0.000134298 7.7267e-06)
(4.76189 -0.000134867 4.70415e-06)
(4.76569 -0.000135405 -5.84342e-06)
(4.76954 -0.000136013 -7.55434e-06)
(4.77341 -0.000136002 2.31568e-06)
(4.7773 -0.000135234 1.19942e-05)
(4.78123 -0.000135111 1.21685e-05)
(4.78521 -0.000137094 2.35079e-06)
(4.78927 -0.000139727 -1.41786e-05)
(4.7934 -0.000141576 -2.04107e-05)
(4.79756 -0.000142136 -1.95419e-05)
(4.80174 -0.000141788 -1.03399e-05)
(4.80594 -0.000141635 5.98694e-06)
(4.81013 -0.000142584 1.43619e-05)
(4.81433 -0.000143963 5.98751e-06)
(4.81857 -0.000144062 -1.16749e-05)
(4.82283 -0.000143343 -2.03635e-05)
(4.82714 -0.000143893 -5.72221e-06)
(4.8315 -0.000145493 2.84183e-05)
(4.83589 -0.000147015 4.97497e-05)
(4.8403 -0.000146939 5.17946e-05)
(4.84473 -0.000146457 3.81879e-05)
(4.84922 -0.00014783 1.8815e-05)
(4.85377 -0.000150589 7.60139e-06)
(4.85834 -0.000153159 7.14287e-07)
(4.86292 -0.000153887 -1.24806e-05)
(4.86748 -0.00015244 -2.79874e-05)
(4.87204 -0.000150717 -3.34087e-05)
(4.73287 -0.000122517 2.14749e-05)
(4.7362 -0.00012646 8.98244e-06)
(4.73964 -0.000130665 -2.59226e-05)
(4.74321 -0.000133234 -5.33482e-05)
(4.74688 -0.000134502 -5.77714e-05)
(4.75061 -0.000135098 -4.78844e-05)
(4.75435 -0.000135018 -2.67962e-05)
(4.75808 -0.000134955 1.92674e-06)
(4.76184 -0.000134805 1.27973e-05)
(4.76565 -0.000134007 1.01104e-05)
(4.7695 -0.000133737 2.69201e-06)
(4.77338 -0.000134296 9.42424e-07)
(4.77728 -0.00013553 3.58705e-06)
(4.78121 -0.000137274 1.45636e-06)
(4.78518 -0.000139225 -8.13629e-06)
(4.78924 -0.000140206 -1.40627e-05)
(4.79336 -0.000140505 -1.29893e-05)
(4.79753 -0.000141003 -5.79221e-06)
(4.80173 -0.000141988 -1.58513e-06)
(4.80593 -0.000143028 -5.06322e-06)
(4.81012 -0.000143551 -9.76686e-06)
(4.81432 -0.000142808 -8.60776e-06)
(4.81855 -0.000141163 -5.16809e-06)
(4.82283 -0.000140917 -2.4096e-06)
(4.82715 -0.000142677 4.97429e-06)
(4.83151 -0.000145431 2.58513e-05)
(4.83591 -0.000147731 4.75477e-05)
(4.84032 -0.000148772 5.78171e-05)
(4.84475 -0.000149192 5.29037e-05)
(4.84923 -0.000150211 3.60198e-05)
(4.85375 -0.000151123 9.04276e-06)
(4.85831 -0.000151635 -1.37837e-05)
(4.86289 -0.000151847 -2.59597e-05)
(4.86746 -0.000151482 -3.15348e-05)
(4.87203 -0.000151161 -3.08531e-05)
(4.73275 -0.000121211 2.61368e-05)
(4.73608 -0.000124076 -9.81111e-06)
(4.73953 -0.000128727 -5.37147e-05)
(4.74312 -0.000133035 -7.01002e-05)
(4.74682 -0.0001353 -6.43217e-05)
(4.75057 -0.000135082 -4.432e-05)
(4.75435 -0.000133858 -2.17228e-05)
(4.75812 -0.000134392 -1.10933e-05)
(4.76192 -0.000136947 -1.0361e-05)
(4.76574 -0.000138431 -8.5622e-06)
(4.76957 -0.00013778 3.43472e-07)
(4.77342 -0.000135916 9.44615e-06)
(4.7773 -0.000133955 1.00961e-05)
(4.78121 -0.000134095 4.04272e-07)
(4.78519 -0.0001365 -9.89227e-06)
(4.78925 -0.00013903 -1.09662e-05)
(4.79338 -0.000140905 -3.07981e-06)
(4.79756 -0.000141746 3.78938e-06)
(4.80175 -0.000141947 1.21089e-06)
(4.80595 -0.000142131 -9.35341e-06)
(4.81015 -0.000142737 -1.15233e-05)
(4.81437 -0.000143695 1.91123e-06)
(4.81861 -0.000143812 1.74183e-05)
(4.82287 -0.000142968 2.37492e-05)
(4.82718 -0.000142786 2.62124e-05)
(4.83152 -0.000144209 3.04881e-05)
(4.8359 -0.000146658 3.50364e-05)
(4.8403 -0.000148195 3.39085e-05)
(4.84473 -0.000148611 2.24784e-05)
(4.84921 -0.000149431 8.55742e-06)
(4.85373 -0.000150794 -2.04672e-06)
(4.8583 -0.000152298 -1.20406e-05)
(4.86288 -0.000152771 -2.33786e-05)
(4.86744 -0.000151526 -3.10938e-05)
(4.872 -0.000149684 -3.19799e-05)
(4.73268 -0.000123676 5.22569e-05)
(4.736 -0.000126123 2.90222e-05)
(4.73945 -0.000128171 -2.9847e-05)
(4.74303 -0.00013036 -5.94594e-05)
(4.74673 -0.000133188 -5.40853e-05)
(4.75049 -0.000135526 -2.61037e-05)
(4.75428 -0.000135791 -1.92807e-06)
(4.75806 -0.000134763 -6.07933e-06)
(4.76185 -0.00013394 -2.68534e-05)
(4.76568 -0.000134187 -3.75265e-05)
(4.76952 -0.000135902 -3.19621e-05)
(4.77339 -0.000137396 -2.9362e-06)
(4.77729 -0.000137702 2.49359e-05)
(4.78121 -0.000137078 3.07266e-05)
(4.7852 -0.000136628 2.46144e-05)
(4.78927 -0.000137725 1.22579e-05)
(4.79341 -0.000139769 6.44104e-06)
(4.7976 -0.000141974 3.7935e-06)
(4.8018 -0.000143004 -9.15514e-06)
(4.80599 -0.000142812 -2.88019e-05)
(4.81017 -0.000142725 -3.5253e-05)
(4.81436 -0.00014312 -2.3344e-05)
(4.81859 -0.000142727 1.59744e-05)
(4.82285 -0.00014147 4.38978e-05)
(4.82715 -0.000141523 4.63974e-05)
(4.8315 -0.000144241 3.61635e-05)
(4.83589 -0.000147786 2.48341e-05)
(4.8403 -0.000149403 2.05364e-05)
(4.84472 -0.000149253 2.13598e-05)
(4.84919 -0.000149473 1.89484e-05)
(4.85371 -0.000150415 3.84473e-06)
(4.85827 -0.000151627 -1.9284e-05)
(4.86284 -0.000151966 -2.92086e-05)
(4.86741 -0.000151114 -2.92763e-05)
(4.87197 -0.000150106 -2.21409e-05)
(4.7327 -0.00012638 1.68347e-05)
(4.73601 -0.000127782 4.34e-06)
(4.73945 -0.000128371 -1.86621e-05)
(4.74302 -0.000129437 -3.51376e-05)
(4.74672 -0.000132086 -3.34599e-05)
(4.7505 -0.000135073 -1.57752e-05)
(4.75429 -0.00013641 3.59508e-06)
(4.75807 -0.000136151 9.10115e-06)
(4.76187 -0.000135157 -1.6684e-07)
(4.76568 -0.000134109 -2.72316e-05)
(4.76952 -0.000134713 -4.24983e-05)
(4.77339 -0.000136583 -4.16641e-05)
(4.77729 -0.000138226 -2.0815e-05)
(4.78121 -0.000138878 1.44634e-05)
(4.7852 -0.000139165 3.37995e-05)
(4.78927 -0.000139721 3.48682e-05)
(4.79341 -0.00014068 2.79373e-05)
(4.79759 -0.000141842 1.45781e-05)
(4.80178 -0.000142236 -8.87269e-06)
(4.80597 -0.000141093 -2.82924e-05)
(4.81014 -0.000139703 -3.21156e-05)
(4.81434 -0.000140516 -1.78899e-05)
(4.81858 -0.000142511 2.29295e-05)
(4.82285 -0.000144199 5.01021e-05)
(4.82715 -0.000145067 5.2342e-05)
(4.83148 -0.000145599 3.76261e-05)
(4.83586 -0.000146101 1.14295e-05)
(4.84027 -0.000146661 -4.38765e-07)
(4.8447 -0.000148147 -5.34347e-07)
(4.84919 -0.000150584 -3.38241e-06)
(4.85371 -0.000152588 -1.46423e-05)
(4.85827 -0.000152878 -2.63376e-05)
(4.86283 -0.000151473 -2.88007e-05)
(4.86739 -0.000149596 -2.47475e-05)
(4.87195 -0.000148825 -1.65157e-05)
(4.73269 -0.000124176 6.97661e-06)
(4.736 -0.000126254 8.02798e-06)
(4.73943 -0.000128456 9.30913e-07)
(4.74301 -0.000130642 -7.5173e-06)
(4.74669 -0.00013271 -8.5456e-06)
(4.75045 -0.000134424 -3.19385e-06)
(4.75424 -0.000135399 2.31681e-06)
(4.75802 -0.000136073 3.76166e-06)
(4.76182 -0.000136189 -3.37392e-06)
(4.76565 -0.000134643 -2.40879e-05)
(4.76949 -0.000133534 -4.41181e-05)
(4.77337 -0.000134112 -5.19022e-05)
(4.77728 -0.000135964 -4.41328e-05)
(4.78121 -0.000137731 -1.00231e-05)
(4.78519 -0.000138863 2.94951e-05)
(4.78924 -0.000139334 3.92715e-05)
(4.79336 -0.000140235 3.5119e-05)
(4.79753 -0.000141693 2.11552e-05)
(4.80173 -0.000142512 -1.73962e-06)
(4.80592 -0.000141867 -1.91039e-05)
(4.8101 -0.000140683 -2.11016e-05)
(4.8143 -0.000140871 -2.57125e-06)
(4.81853 -0.000141962 2.82743e-05)
(4.82281 -0.000143276 4.63802e-05)
(4.82712 -0.000144529 4.73121e-05)
(4.83147 -0.000145813 3.4963e-05)
(4.83586 -0.000147332 1.4058e-05)
(4.84028 -0.000148464 4.53825e-07)
(4.84471 -0.000149466 -7.24181e-06)
(4.8492 -0.000150715 -1.87825e-05)
(4.85372 -0.000151654 -3.01272e-05)
(4.85827 -0.000151724 -3.21592e-05)
(4.86284 -0.000151104 -2.28186e-05)
(4.8674 -0.000150033 -5.63639e-06)
(4.87196 -0.000149413 6.32049e-07)
(4.73272 -0.000126547 -1.194e-05)
(4.73602 -0.000128668 -1.30013e-05)
(4.73943 -0.000129335 -7.69075e-06)
(4.74297 -0.000129634 6.24978e-06)
(4.74663 -0.000131562 2.16236e-05)
(4.75039 -0.000133995 2.5194e-05)
(4.75417 -0.000135391 1.93152e-05)
(4.75795 -0.000135934 2.43279e-06)
(4.76175 -0.000136422 -1.10419e-05)
(4.76558 -0.0001359 -1.51429e-05)
(4.76944 -0.000134719 -1.91011e-05)
(4.77332 -0.000133847 -2.68173e-05)
(4.77724 -0.000134402 -3.00349e-05)
(4.78119 -0.000136755 -2.31048e-05)
(4.78519 -0.000140067 4.18685e-06)
(4.78926 -0.000141686 3.30202e-05)
(4.7934 -0.000142219 3.98889e-05)
(4.79757 -0.000142495 3.29072e-05)
(4.80177 -0.000142399 1.05932e-05)
(4.80596 -0.000140874 -1.12107e-05)
(4.81014 -0.000139239 -1.49121e-05)
(4.81434 -0.00014023 -5.57036e-07)
(4.81858 -0.000143347 2.27413e-05)
(4.82285 -0.000146004 3.65571e-05)
(4.82715 -0.000146996 3.77421e-05)
(4.83149 -0.000146386 2.68603e-05)
(4.83586 -0.00014599 6.39114e-06)
(4.84027 -0.000146682 -1.168e-05)
(4.84471 -0.000148769 -2.61947e-05)
(4.84919 -0.000151027 -3.50145e-05)
(4.85371 -0.000151694 -3.86482e-05)
(4.85826 -0.000151021 -3.37717e-05)
(4.86282 -0.00015035 -1.55555e-05)
(4.86738 -0.000149829 6.96327e-06)
(4.87195 -0.000149836 1.48373e-05)
(4.73265 -0.000125622 -5.6268e-05)
(4.73595 -0.000127099 -4.17717e-05)
(4.73937 -0.000127411 7.92216e-07)
(4.74294 -0.000128514 3.21958e-05)
(4.74661 -0.000132169 3.35684e-05)
(4.75037 -0.00013605 1.47006e-05)
(4.75415 -0.000137462 -3.4276e-06)
(4.75791 -0.000136727 -4.1481e-06)
(4.76171 -0.000135129 8.17549e-06)
(4.76554 -0.000133571 1.39812e-05)
(4.7694 -0.000133948 7.10871e-06)
(4.7733 -0.000135849 -1.75698e-05)
(4.77721 -0.000136892 -2.86683e-05)
(4.78114 -0.000137074 -2.33406e-05)
(4.78512 -0.000137422 5.72576e-06)
(4.78919 -0.000139057 3.06696e-05)
(4.79333 -0.00014198 3.40317e-05)
(4.79751 -0.000144142 2.46022e-05)
(4.80169 -0.000144116 1.17707e-05)
(4.80587 -0.000141884 8.45632e-06)
(4.81004 -0.000139482 1.01502e-05)
(4.81423 -0.000139695 8.36587e-06)
(4.81847 -0.000141985 4.76954e-06)
(4.82276 -0.000144172 7.85874e-06)
(4.82708 -0.000145576 1.54912e-05)
(4.83143 -0.000146163 1.65709e-05)
(4.83582 -0.000146836 6.61472e-06)
(4.84023 -0.000147704 -1.40991e-05)
(4.84466 -0.000148853 -3.40056e-05)
(4.84914 -0.000150163 -4.33075e-05)
(4.85366 -0.000150747 -4.26873e-05)
(4.85822 -0.000151162 -3.18436e-05)
(4.86279 -0.000151437 -6.19919e-06)
(4.86736 -0.000150972 1.61354e-05)
(4.87193 -0.000150568 2.03684e-05)
(4.73261 -0.000123112 -5.17929e-05)
(4.73593 -0.000125506 -3.57222e-05)
(4.73937 -0.000127994 1.86767e-05)
(4.74296 -0.000131184 5.0259e-05)
(4.74665 -0.000134456 4.61026e-05)
(4.75042 -0.000135928 2.13699e-05)
(4.75423 -0.000135397 -5.17983e-06)
(4.75804 -0.00013558 -8.93879e-06)
(4.76187 -0.000137974 -2.60947e-06)
(4.7657 -0.000139345 3.31608e-06)
(4.76952 -0.000137882 -4.47014e-06)
(4.77336 -0.000134753 -2.01554e-05)
(4.77723 -0.000132261 -2.46081e-05)
(4.78116 -0.000133361 -1.64086e-05)
(4.78515 -0.000137694 7.53899e-06)
(4.78921 -0.000141638 2.20243e-05)
(4.79333 -0.000143216 1.80597e-05)
(4.79749 -0.000142718 6.31396e-06)
(4.80167 -0.000141479 3.48608e-06)
(4.80586 -0.000140363 1.02241e-05)
(4.81004 -0.000140071 1.58583e-05)
(4.81424 -0.000141466 1.59319e-05)
(4.81848 -0.000143073 1.52679e-05)
(4.82276 -0.000144087 1.80233e-05)
(4.82708 -0.000145124 2.11083e-05)
(4.83142 -0.000146036 1.91718e-05)
(4.8358 -0.000146681 7.60496e-06)
(4.84021 -0.000147367 -1.747e-05)
(4.84465 -0.000148419 -4.1558e-05)
(4.84913 -0.000149789 -5.11493e-05)
(4.85365 -0.000150429 -4.93683e-05)
(4.8582 -0.000151044 -3.45276e-05)
(4.86277 -0.00015153 -2.55637e-06)
(4.86734 -0.000151675 2.14436e-05)
(4.87192 -0.000151373 2.42161e-05)
(4.73274 -0.000122496 -4.70988e-05)
(4.73607 -0.000124428 -2.33451e-05)
(4.73952 -0.000127846 3.0405e-05)
(4.7431 -0.000131618 5.37468e-05)
(4.74677 -0.000134404 4.9493e-05)
(4.75051 -0.000135621 3.38231e-05)
(4.75425 -0.000135523 1.25444e-05)
(4.758 -0.000134961 -1.44069e-05)
(4.76179 -0.000134765 -3.47092e-05)
(4.76562 -0.00013518 -3.68783e-05)
(4.76949 -0.000135899 -2.80023e-05)
(4.77338 -0.000135991 -9.67974e-06)
(4.77728 -0.000135604 3.30418e-06)
(4.78122 -0.000135778 4.88333e-06)
(4.78521 -0.000137579 4.14856e-06)
(4.78927 -0.000139767 4.83262e-06)
(4.79339 -0.000141479 8.13083e-06)
(4.79755 -0.000142349 1.59294e-05)
(4.80172 -0.000142452 2.51864e-05)
(4.8059 -0.000141487 3.08542e-05)
(4.81007 -0.000139972 2.92763e-05)
(4.81426 -0.000139926 2.16033e-05)
(4.8185 -0.000141366 1.0972e-05)
(4.82279 -0.000143612 6.16069e-06)
(4.82711 -0.000146073 4.99975e-06)
(4.83146 -0.000147472 5.51214e-07)
(4.83584 -0.000148042 -1.16003e-05)
(4.84023 -0.000148209 -2.90617e-05)
(4.84466 -0.000148281 -4.01954e-05)
(4.84913 -0.000148402 -4.40369e-05)
(4.85365 -0.000148385 -4.03068e-05)
(4.85822 -0.000149617 -3.17243e-05)
(4.86281 -0.000151619 -2.00658e-05)
(4.86739 -0.000152938 -1.79109e-06)
(4.87197 -0.000152768 1.50381e-05)
(4.73288 -0.000121821 -3.53246e-05)
(4.7362 -0.000125839 -9.59444e-06)
(4.73963 -0.000130364 3.43805e-05)
(4.74319 -0.000132478 5.11414e-05)
(4.74684 -0.000132789 4.38326e-05)
(4.75056 -0.000133251 1.63863e-05)
(4.7543 -0.000134225 -1.32613e-05)
(4.75805 -0.000135583 -1.99598e-05)
(4.76184 -0.000135886 -1.79278e-05)
(4.76567 -0.000135002 -1.29519e-05)
(4.76952 -0.000134803 -6.26299e-06)
(4.7734 -0.000135489 5.66191e-07)
(4.7773 -0.000136345 3.61381e-06)
(4.78124 -0.000137381 5.2016e-06)
(4.78523 -0.000138868 6.28863e-06)
(4.78929 -0.000139818 5.79519e-06)
(4.79341 -0.000140425 3.28694e-06)
(4.79757 -0.000141237 1.88743e-06)
(4.80175 -0.000142061 9.90849e-06)
(4.80593 -0.00014216 2.37501e-05)
(4.8101 -0.000141606 3.09139e-05)
(4.81429 -0.000141535 3.1471e-05)
(4.81852 -0.000142039 2.51583e-05)
(4.8228 -0.000143061 9.69048e-06)
(4.82712 -0.000144731 -7.91841e-06)
(4.83147 -0.000146443 -1.73252e-05)
(4.83584 -0.000147584 -2.28484e-05)
(4.84025 -0.00014794 -2.87857e-05)
(4.84468 -0.000148443 -3.27229e-05)
(4.84916 -0.000149545 -3.04857e-05)
(4.85368 -0.000150111 -2.14576e-05)
(4.85825 -0.000150072 -1.01775e-05)
(4.86283 -0.000150034 -2.29671e-06)
(4.86742 -0.000150281 4.31566e-06)
(4.87201 -0.000151306 1.09347e-05)
(4.7328 -0.000120461 -1.95097e-05)
(4.73611 -0.000122789 -1.47303e-05)
(4.73955 -0.000128782 4.77464e-06)
(4.74312 -0.000134248 3.25084e-05)
(4.74678 -0.000136456 4.24978e-05)
(4.75049 -0.000135747 3.53472e-05)
(4.75423 -0.00013378 4.95991e-06)
(4.75799 -0.000133653 -2.37847e-05)
(4.76179 -0.000134687 -2.61739e-05)
(4.76564 -0.000134704 -1.91992e-05)
(4.7695 -0.000134861 -1.57961e-05)
(4.77339 -0.000135691 -2.11378e-05)
(4.7773 -0.000136428 -2.54867e-05)
(4.78125 -0.000137321 -1.87994e-05)
(4.78525 -0.000138869 7.65331e-06)
(4.78932 -0.000140359 2.42843e-05)
(4.79344 -0.000141708 2.38195e-05)
(4.79759 -0.000142583 1.69688e-05)
(4.80176 -0.000142558 1.56648e-05)
(4.80592 -0.000141334 2.34046e-05)
(4.81008 -0.000139969 3.04999e-05)
(4.81427 -0.000140378 3.17733e-05)
(4.81851 -0.000142069 2.60362e-05)
(4.82278 -0.000143673 1.47973e-05)
(4.82709 -0.000144761 -3.76047e-06)
(4.83144 -0.000145778 -2.69966e-05)
(4.83582 -0.000147306 -4.3427e-05)
(4.84022 -0.00014891 -5.19202e-05)
(4.84465 -0.00014932 -5.0164e-05)
(4.84913 -0.000149261 -3.65389e-05)
(4.85366 -0.000149091 -7.01768e-06)
(4.85824 -0.000149787 1.74561e-05)
(4.86283 -0.000151004 2.08761e-05)
(4.86743 -0.0001517 1.04468e-05)
(4.87202 -0.000151987 -5.24286e-06)
(4.73273 -0.00012324 3.0886e-06)
(4.73606 -0.000125552 3.8831e-06)
(4.7395 -0.000128231 -4.77201e-07)
(4.74306 -0.000130996 -2.58528e-06)
(4.74672 -0.000134069 -1.86561e-07)
(4.75044 -0.000136152 1.7467e-06)
(4.75418 -0.000136252 1.14872e-06)
(4.75793 -0.000135197 3.21023e-06)
(4.76173 -0.000134997 1.06185e-05)
(4.76557 -0.000135427 1.55296e-05)
(4.76945 -0.000135927 1.33549e-05)
(4.77335 -0.000135381 5.62646e-06)
(4.77726 -0.000134002 1.08721e-06)
(4.78121 -0.000134637 2.21611e-06)
(4.78522 -0.000139051 5.05086e-07)
(4.78931 -0.000142991 -1.35065e-05)
(4.79343 -0.000144103 -2.33855e-05)
(4.79758 -0.000143166 -2.27614e-05)
(4.80174 -0.000141821 -7.57683e-06)
(4.80591 -0.00014105 2.25583e-05)
(4.81008 -0.000140629 3.77883e-05)
(4.81427 -0.000141044 4.00396e-05)
(4.81849 -0.000142217 3.20403e-05)
(4.82276 -0.000144094 1.15285e-05)
(4.82706 -0.000146141 -1.55116e-05)
(4.8314 -0.000147156 -3.83094e-05)
(4.83577 -0.000147096 -4.66857e-05)
(4.84017 -0.000146194 -4.50387e-05)
(4.84461 -0.000145871 -2.75965e-05)