/*--------------------------------*- C++ -*----------------------------------*\
  =========                 |
  \\      /  F ield         | OpenFOAM: The Open Source CFD Toolbox
   \\    /   O peration     | Website:  https://openfoam.org
    \\  /    A nd           | Version:  9
     \\/     M anipulation  |
\*---------------------------------------------------------------------------*/
FoamFile
{
    format      ascii;
    class       volVectorField;
    location    "1100";
    object      U;
}
// * * * * * * * * * * * * * * * * * * * * * * * * * * * * * * * * * * * * * //

dimensions      [0 1 -1 0 0 0 0];

internalField   nonuniform List<vector> 
82350
(
(5.34536 0.0324393 -6.98234e-05)
(4.73252 0.0255393 -5.40354e-05)
(4.35402 0.00949013 -2.46214e-05)
(4.21879 -0.00185337 -1.27572e-05)
(4.24771 -0.00679367 -2.57202e-06)
(4.33848 -0.00654285 -3.30627e-07)
(4.4313 -0.00534621 1.18825e-05)
(4.50696 -0.00408508 1.02869e-05)
(4.56342 -0.00300343 7.04369e-06)
(4.60304 -0.00214179 3.11367e-06)
(4.62939 -0.00149996 -3.90005e-06)
(4.64642 -0.00104879 -6.89649e-06)
(4.65741 -0.000742977 -2.58638e-06)
(4.66464 -0.000543441 -7.85128e-07)
(4.66963 -0.000417676 3.07141e-06)
(4.67341 -0.000335725 2.46057e-06)
(4.67643 -0.000275904 1.30779e-06)
(4.67873 -0.000228469 9.67091e-07)
(4.68035 -0.000189903 -3.15962e-06)
(4.68147 -0.000157081 -6.47118e-06)
(4.68229 -0.000131312 -9.50632e-06)
(4.68302 -0.000115819 -1.57481e-05)
(4.68397 -0.000114818 -1.89652e-05)
(4.68535 -0.000120735 -1.72044e-05)
(4.68703 -0.000121268 -8.22684e-06)
(4.68873 -0.000115845 1.16676e-05)
(4.69033 -0.000109299 2.02843e-05)
(4.69193 -0.000106575 1.87753e-05)
(4.69369 -0.000106699 1.58392e-05)
(4.69566 -0.000107086 2.02857e-05)
(4.69779 -0.00010806 2.84477e-05)
(4.70006 -0.000109953 3.17095e-05)
(4.70251 -0.00011494 2.4755e-05)
(4.70519 -0.000120123 -4.31638e-06)
(4.70809 -0.000124653 -2.96772e-05)
(4.71111 -0.000125584 -3.27518e-05)
(4.71415 -0.000124121 -2.3579e-05)
(4.71718 -0.000123641 2.08227e-06)
(4.72025 -0.000123994 2.99746e-05)
(4.72336 -0.00012339 4.27398e-05)
(4.72649 -0.000122749 4.21708e-05)
(4.72967 -0.00012238 2.07974e-05)
(5.34784 0.0440045 -0.000127885)
(4.73448 0.0250488 0.000207395)
(4.35462 0.00634357 0.00013937)
(4.21864 -0.00390155 1.58085e-05)
(4.24745 -0.00770958 -7.16884e-07)
(4.33836 -0.00690102 -1.0031e-05)
(4.43131 -0.00550045 -2.1504e-06)
(4.50707 -0.00412855 -5.31595e-06)
(4.56355 -0.00300814 -7.685e-06)
(4.60319 -0.00214302 -4.67351e-06)
(4.62957 -0.00149981 -3.83138e-06)
(4.64661 -0.00104746 -6.11422e-06)
(4.65759 -0.000740054 -6.73904e-06)
(4.6648 -0.000541348 -8.24851e-06)
(4.66979 -0.000416505 -6.14533e-06)
(4.67356 -0.000335185 -4.80293e-06)
(4.67658 -0.000274889 -2.31099e-06)
(4.67886 -0.000226745 5.67661e-07)
(4.68047 -0.000187504 -2.45982e-06)
(4.68158 -0.000154749 -7.97082e-06)
(4.68237 -0.000129838 -1.30823e-05)
(4.68308 -0.000115163 -1.56678e-05)
(4.68403 -0.000114553 -1.25497e-05)
(4.68541 -0.000120527 -3.08762e-06)
(4.6871 -0.000121364 5.04145e-06)
(4.68879 -0.000115878 8.90758e-06)
(4.69039 -0.000108576 8.88475e-06)
(4.69198 -0.000105299 1.00911e-05)
(4.69375 -0.000105602 1.52702e-05)
(4.69572 -0.000106969 1.83057e-05)
(4.69786 -0.000108594 1.70318e-05)
(4.70013 -0.000110339 1.08036e-05)
(4.70256 -0.000114651 2.24307e-06)
(4.70524 -0.00011944 -6.7301e-06)
(4.70813 -0.000123747 -1.173e-05)
(4.71115 -0.000125144 -8.41846e-06)
(4.71418 -0.00012396 3.47565e-10)
(4.71721 -0.000123131 7.95215e-06)
(4.72028 -0.000123772 1.46284e-05)
(4.72339 -0.000123964 2.06039e-05)
(4.72652 -0.000123461 2.03829e-05)
(4.72969 -0.000122106 8.68496e-06)
(5.34558 0.0323841 -0.00140838)
(4.73231 0.0255629 -0.000333603)
(4.35371 0.00950227 0.000345065)
(4.21848 -0.0018527 0.000293171)
(4.24745 -0.00679455 0.000256735)
(4.33832 -0.00654324 0.000194024)
(4.43119 -0.00534697 0.000153167)
(4.50689 -0.0040856 0.000126131)
(4.56336 -0.00300395 0.000106473)
(4.60298 -0.00214234 8.50366e-05)
(4.62933 -0.00150034 7.18506e-05)
(4.64634 -0.00104889 5.73602e-05)
(4.65733 -0.000743014 4.657e-05)
(4.66455 -0.000543527 3.71519e-05)
(4.66955 -0.000417714 3.27358e-05)
(4.67333 -0.000335832 2.92687e-05)
(4.67636 -0.000276147 2.7139e-05)
(4.67865 -0.000228491 2.80811e-05)
(4.68027 -0.000189557 2.38036e-05)
(4.68138 -0.000156765 1.67015e-05)
(4.68219 -0.00013115 5.99085e-06)
(4.68292 -0.000115797 -2.55177e-06)
(4.68388 -0.000115198 -3.97685e-07)
(4.68527 -0.000121573 1.03804e-05)
(4.68695 -0.000122248 1.69635e-05)
(4.68864 -0.000116079 2.01187e-05)
(4.69024 -0.000108469 2.11713e-05)
(4.69185 -0.000105526 2.14033e-05)
(4.69363 -0.000106282 2.19487e-05)
(4.69561 -0.000107699 2.13151e-05)
(4.69774 -0.000108857 1.94519e-05)
(4.70001 -0.000110239 1.60283e-05)
(4.70245 -0.000114547 1.10624e-05)
(4.70513 -0.000119374 1.58361e-06)
(4.70803 -0.000123944 -6.72838e-06)
(4.71104 -0.000125586 -7.7719e-06)
(4.71409 -0.000124683 -2.77145e-06)
(4.71712 -0.000124043 8.44643e-06)
(4.7202 -0.000124203 1.63299e-05)
(4.72331 -0.000123599 1.95615e-05)
(4.72644 -0.000123012 1.98165e-05)
(4.72962 -0.000122326 1.10667e-05)
(5.34392 0.0328237 0.000408668)
(4.7301 0.0255542 0.000141055)
(4.35276 0.00944868 -4.08996e-05)
(4.21844 -0.00189162 -0.000137887)
(4.24762 -0.00681918 -0.000119472)
(4.33838 -0.00655079 -0.00010892)
(4.4311 -0.00535271 -8.14562e-05)
(4.5067 -0.00408861 -6.99903e-05)
(4.56308 -0.00300447 -6.43931e-05)
(4.60264 -0.00214411 -3.57459e-05)
(4.62897 -0.00150272 -1.66793e-05)
(4.64599 -0.00105089 -1.72692e-05)
(4.65698 -0.000744294 -2.74738e-05)
(4.66422 -0.000545607 -2.62348e-05)
(4.66924 -0.000420539 -2.08547e-05)
(4.67304 -0.000338835 -1.45253e-05)
(4.67608 -0.0002778 -9.90825e-06)
(4.67836 -0.000228966 -3.44429e-06)
(4.67996 -0.000189292 -2.4701e-06)
(4.68105 -0.000156092 -7.22366e-06)
(4.68185 -0.000130585 -8.76139e-06)
(4.68259 -0.000115854 -8.76284e-06)
(4.68356 -0.00011576 -6.53453e-06)
(4.68497 -0.000122432 -2.09291e-06)
(4.68667 -0.000123187 4.58972e-06)
(4.68837 -0.000116964 1.16633e-05)
(4.68998 -0.000109312 1.31115e-05)
(4.69159 -0.000106434 8.34212e-06)
(4.69337 -0.000107069 3.23408e-06)
(4.69536 -0.000108424 2.15398e-06)
(4.6975 -0.000109489 4.93015e-06)
(4.69978 -0.000110699 8.22344e-06)
(4.70223 -0.000114877 7.06614e-06)
(4.70492 -0.000119831 2.31409e-06)
(4.70782 -0.000124715 -2.00457e-06)
(4.71084 -0.000126102 -2.39894e-06)
(4.71389 -0.000124656 1.29096e-06)
(4.71693 -0.000123809 5.11142e-06)
(4.72002 -0.000124235 5.69576e-06)
(4.72315 -0.000124473 5.27014e-06)
(4.72629 -0.000124484 5.0851e-06)
(4.72947 -0.000123374 2.43941e-06)
(5.34771 0.0439764 -1.90778e-05)
(4.73406 0.0250551 -5.92474e-06)
(4.35424 0.00636543 9.16462e-06)
(4.21817 -0.00388822 6.52585e-06)
(4.24702 -0.00770701 2.88148e-06)
(4.33802 -0.00690033 -1.80613e-06)
(4.43104 -0.00550033 -3.90224e-06)
(4.50686 -0.00412777 -6.08914e-06)
(4.56337 -0.00300753 -2.69126e-06)
(4.60302 -0.0021421 2.56225e-06)
(4.62939 -0.00149954 5.52818e-06)
(4.6464 -0.00104682 4.40713e-06)
(4.65737 -0.000738975 -1.20659e-06)
(4.66459 -0.000540442 -9.76642e-06)
(4.6696 -0.000416045 -1.4052e-05)
(4.67338 -0.000335255 -1.14587e-05)
(4.67642 -0.000275322 -3.68261e-06)
(4.6787 -0.000227345 5.41201e-06)
(4.6803 -0.000188068 6.30807e-06)
(4.68139 -0.000154917 3.25744e-06)
(4.68217 -0.00012988 -4.92505e-08)
(4.6829 -0.000115428 -8.16333e-07)
(4.68385 -0.000115015 -7.27267e-07)
(4.68524 -0.00012113 -4.08104e-07)
(4.68691 -0.000121984 2.46717e-06)
(4.6886 -0.000116305 9.8087e-06)
(4.6902 -0.000108948 1.31641e-05)
(4.6918 -0.000105608 1.15445e-05)
(4.69357 -0.00010576 4.38947e-06)
(4.69555 -0.00010687 -1.49828e-06)
(4.69769 -0.000108391 -8.04546e-07)
(4.69996 -0.00011016 4.51162e-06)
(4.7024 -0.00011457 6.3754e-06)
(4.70507 -0.000119425 3.4246e-06)
(4.70796 -0.000124002 -8.87627e-07)
(4.71097 -0.000125518 -1.0564e-06)
(4.71401 -0.00012456 3.01941e-06)
(4.71705 -0.000123754 5.91172e-06)
(4.72012 -0.000123721 3.38237e-06)
(4.72324 -0.000123272 -3.24934e-06)
(4.72638 -0.000123099 -8.19077e-06)
(4.72955 -0.000122844 -9.01302e-06)
(5.34394 0.0327339 -0.000492602)
(4.73011 0.0255604 -0.000140942)
(4.35275 0.00946335 8.25354e-05)
(4.21839 -0.00188096 0.000165279)
(4.24758 -0.00681261 0.000139172)
(4.33834 -0.00654808 0.000117883)
(4.43107 -0.00535138 8.3088e-05)
(4.50669 -0.0040883 6.58983e-05)
(4.56308 -0.00300453 6.42047e-05)
(4.60263 -0.00214391 4.2148e-05)
(4.62895 -0.00150231 2.9415e-05)
(4.64596 -0.00105049 2.69106e-05)
(4.65695 -0.000743986 2.64649e-05)
(4.66419 -0.000545355 1.814e-05)
(4.66922 -0.000420302 7.48021e-06)
(4.67304 -0.000339003 -1.9411e-07)
(4.6761 -0.000278352 1.72243e-06)
(4.67839 -0.000229635 4.94726e-06)
(4.67998 -0.000189699 8.21302e-06)
(4.68105 -0.000155939 8.84149e-06)
(4.68184 -0.000130179 7.21437e-06)
(4.68259 -0.000115876 5.44056e-06)
(4.68357 -0.000115877 4.40419e-06)
(4.68498 -0.000122095 4.23558e-06)
(4.68668 -0.000122668 4.03813e-06)
(4.68838 -0.000117059 3.52095e-06)
(4.68999 -0.00011016 4.64322e-06)
(4.69161 -0.000107088 6.79076e-06)
(4.69338 -0.000106971 7.19273e-06)
(4.69536 -0.000107364 5.56757e-06)
(4.6975 -0.000108183 4.35012e-06)
(4.69978 -0.000109977 5.47089e-06)
(4.70223 -0.000114781 7.15897e-06)
(4.70492 -0.00012002 6.84343e-06)
(4.70782 -0.000124946 5.09886e-06)
(4.71084 -0.00012639 4.65279e-06)
(4.71388 -0.000125071 6.40948e-06)
(4.71692 -0.000123928 9.04971e-06)
(4.72 -0.000123715 9.57096e-06)
(4.72312 -0.00012329 3.41997e-06)
(4.72627 -0.000123418 -1.00255e-05)
(4.72946 -0.000123313 -1.67011e-05)
(5.34561 0.0323734 0.00116131)
(4.73228 0.025562 0.000307593)
(4.35365 0.00950783 -0.000276941)
(4.21837 -0.00184881 -0.000260763)
(4.24734 -0.00679187 -0.000230303)
(4.33823 -0.00654224 -0.000177683)
(4.43112 -0.00534613 -0.000142963)
(4.50685 -0.00408514 -0.00012127)
(4.56333 -0.0030037 -0.000101496)
(4.60295 -0.00214201 -7.75368e-05)
(4.62928 -0.00149985 -6.11922e-05)
(4.64629 -0.00104842 -5.08523e-05)
(4.65727 -0.000742497 -4.63162e-05)
(4.6645 -0.000543118 -4.02989e-05)
(4.66951 -0.000417422 -3.75243e-05)
(4.6733 -0.000335779 -3.47636e-05)
(4.67635 -0.000276251 -3.30199e-05)
(4.67864 -0.00022844 -3.07121e-05)
(4.68025 -0.000189214 -2.31372e-05)
(4.68135 -0.000156256 -1.23723e-05)
(4.68215 -0.000130782 -1.18537e-06)
(4.68289 -0.000115731 4.2278e-06)
(4.68385 -0.000115222 2.60964e-06)
(4.68524 -0.000121548 -1.9784e-06)
(4.68691 -0.000122158 -3.15564e-06)
(4.6886 -0.000115891 -4.98459e-06)
(4.6902 -0.000108253 -6.79951e-06)
(4.69181 -0.000105346 -6.96375e-06)
(4.69359 -0.000106133 -5.93299e-06)
(4.69557 -0.000107454 -1.50151e-06)
(4.6977 -0.000108489 4.89029e-06)
(4.69997 -0.000109756 7.55116e-06)
(4.70242 -0.00011402 5.35651e-06)
(4.7051 -0.000119012 -1.40457e-06)
(4.70799 -0.000123882 -7.43757e-06)
(4.711 -0.000125781 -7.39747e-06)
(4.71405 -0.000124821 -4.10952e-06)
(4.71709 -0.000123946 1.44946e-06)
(4.72016 -0.000123991 2.07275e-06)
(4.72328 -0.000123098 -6.0928e-06)
(4.72641 -0.000122134 -1.85425e-05)
(4.72959 -0.000121501 -2.21967e-05)
(5.3476 0.044004 -0.000309056)
(4.73402 0.0250473 -0.000179138)
(4.35426 0.00635029 4.35746e-06)
(4.21833 -0.00389836 6.48567e-05)
(4.24719 -0.00770902 7.77928e-05)
(4.33815 -0.00690032 5.326e-05)
(4.43114 -0.00549954 3.95745e-05)
(4.50693 -0.00412762 3.8968e-05)
(4.56342 -0.0030074 3.35418e-05)
(4.60305 -0.00214226 2.37075e-05)
(4.62942 -0.00149938 2.61668e-05)
(4.64645 -0.00104707 2.13773e-05)
(4.65742 -0.000739586 1.26043e-05)
(4.66465 -0.000541055 1.17731e-05)
(4.66965 -0.000416389 1.1469e-05)
(4.67344 -0.000335423 1.15004e-05)
(4.67648 -0.000275213 6.45426e-06)
(4.67877 -0.000227013 1.27574e-06)
(4.68037 -0.000187563 4.43272e-06)
(4.68146 -0.000154481 8.18885e-06)
(4.68226 -0.000129667 1.34165e-05)
(4.68299 -0.000115324 1.69227e-05)
(4.68394 -0.000114918 1.30397e-05)
(4.68532 -0.000120948 4.32035e-06)
(4.68699 -0.000121721 6.63932e-07)
(4.68868 -0.000116123 5.11102e-06)
(4.69028 -0.000108893 1.12762e-05)
(4.69189 -0.000105521 1.23892e-05)
(4.69367 -0.000105565 8.00045e-06)
(4.69564 -0.000106678 2.28633e-06)
(4.69778 -0.000108341 4.99261e-06)
(4.70006 -0.000110191 1.51901e-05)
(4.7025 -0.000114672 2.19725e-05)
(4.70518 -0.000119332 2.24475e-05)
(4.70806 -0.000123694 1.83604e-05)
(4.71107 -0.000125174 1.42228e-05)
(4.71411 -0.000124214 1.41403e-05)
(4.71714 -0.000123589 1.5857e-05)
(4.72022 -0.000123749 1.59921e-05)
(4.72333 -0.000123398 1.12494e-05)
(4.72647 -0.000123106 -1.55159e-06)
(4.72964 -0.000122238 -9.08332e-06)
(5.34432 0.0325378 -0.000449076)
(4.73068 0.0255545 -9.49901e-06)
(4.35309 0.00945288 0.000167358)
(4.21856 -0.00188069 0.00014085)
(4.24766 -0.00680388 0.000111893)
(4.3384 -0.00654025 9.7133e-05)
(4.43116 -0.00534743 6.82114e-05)
(4.50679 -0.00408693 5.53978e-05)
(4.56323 -0.00300536 4.98912e-05)
(4.60282 -0.00214457 2.47604e-05)
(4.62915 -0.00150327 1.01764e-05)
(4.64616 -0.00105076 8.40195e-06)
(4.65713 -0.000743349 1.46313e-05)
(4.66436 -0.000544099 1.38485e-05)
(4.66938 -0.000419611 8.46653e-06)
(4.67318 -0.000338454 3.13285e-06)
(4.67625 -0.000277922 6.60394e-07)
(4.67856 -0.000229622 -1.44617e-07)
(4.6802 -0.000190413 6.54559e-06)
(4.68134 -0.000157533 1.48443e-05)
(4.68217 -0.000132173 1.64323e-05)
(4.68292 -0.000117288 1.62208e-05)
(4.68389 -0.000116407 1.17211e-05)
(4.68527 -0.000121957 6.38207e-06)
(4.68695 -0.000122233 3.51495e-06)
(4.68866 -0.00011686 3.10842e-06)
(4.69027 -0.000110227 5.78166e-06)
(4.69189 -0.000107308 8.44091e-06)
(4.69367 -0.000107221 8.47638e-06)
(4.69564 -0.000107588 8.27784e-06)
(4.69777 -0.000108408 9.14689e-06)
(4.70005 -0.000110425 1.21424e-05)
(4.70251 -0.000115372 1.47159e-05)
(4.70519 -0.000120573 1.14114e-05)
(4.70807 -0.000125634 2.12948e-06)
(4.71107 -0.000127321 -5.26805e-06)
(4.7141 -0.000126271 -4.88526e-06)
(4.71714 -0.000125505 -6.89047e-07)
(4.72021 -0.000125486 -3.11406e-06)
(4.72332 -0.000124735 -1.81302e-05)
(4.72646 -0.00012406 -3.02734e-05)
(4.72961 -0.000122295 -2.94001e-05)
(5.34544 0.0327033 0.00124076)
(4.7322 0.0255228 0.000288058)
(4.35375 0.00943527 -0.00035244)
(4.21856 -0.00189314 -0.000292553)
(4.24752 -0.0068164 -0.00024886)
(4.33836 -0.00655087 -0.000184941)
(4.43124 -0.00535104 -0.00014293)
(4.50692 -0.00408695 -0.00011528)
(4.56338 -0.0030041 -0.000104679)
(4.603 -0.00214283 -7.90405e-05)
(4.62934 -0.00150043 -6.40207e-05)
(4.64636 -0.00104898 -4.90206e-05)
(4.65736 -0.000743181 -3.88548e-05)
(4.6646 -0.000543739 -2.98873e-05)
(4.66962 -0.000418345 -2.56694e-05)
(4.67341 -0.000336488 -2.01015e-05)
(4.67646 -0.000276578 -1.46627e-05)
(4.67876 -0.000228945 -1.35123e-05)
(4.68038 -0.000189679 -1.15059e-05)
(4.68149 -0.000156654 -8.13292e-06)
(4.68229 -0.000131194 -4.52139e-06)
(4.68301 -0.000115825 -1.9058e-06)
(4.68395 -0.000114855 -1.24706e-06)
(4.68533 -0.000120928 -4.84448e-06)
(4.68699 -0.000122075 -1.27274e-05)
(4.68867 -0.000117093 -2.08604e-05)
(4.69026 -0.000110177 -2.34983e-05)
(4.69185 -0.000106881 -2.02662e-05)
(4.69361 -0.000106918 -1.61334e-05)
(4.69557 -0.000107706 -1.30275e-05)
(4.69769 -0.000108848 -1.05172e-05)
(4.69996 -0.00011049 -7.25173e-06)
(4.70239 -0.000114841 -5.28841e-06)
(4.70506 -0.000119398 -1.03609e-05)
(4.70793 -0.000123633 -2.07207e-05)
(4.71093 -0.000124943 -2.75614e-05)
(4.71396 -0.000124259 -2.74614e-05)
(4.717 -0.000124352 -2.30873e-05)
(4.72007 -0.000124884 -1.9137e-05)
(4.72319 -0.000122951 -1.94101e-05)
(4.72632 -0.00012038 -1.98782e-05)
(4.72949 -0.000118568 -1.42465e-05)
(5.34791 0.0439971 0.000146284)
(4.73466 0.0250473 -0.00016799)
(4.35477 0.00634825 -0.000114783)
(4.21869 -0.00389761 9.77374e-06)
(4.24746 -0.0077085 6.76813e-06)
(4.33837 -0.00690059 7.09235e-06)
(4.43133 -0.0055004 6.37894e-06)
(4.50709 -0.00412856 6.63275e-06)
(4.56358 -0.00300814 5.71287e-06)
(4.60323 -0.0021432 5.09333e-06)
(4.6296 -0.00149982 4.45471e-06)
(4.64663 -0.00104734 7.2403e-06)
(4.65761 -0.000739939 9.38002e-06)
(4.66483 -0.000541205 9.76401e-06)
(4.66982 -0.000416584 7.22132e-06)
(4.6736 -0.000335471 4.34136e-06)
(4.67663 -0.000275316 1.93372e-06)
(4.67891 -0.000226929 -6.10669e-07)
(4.68051 -0.000187451 8.24627e-07)
(4.6816 -0.000154853 5.87555e-06)
(4.68239 -0.000129823 9.33211e-06)
(4.68311 -0.000115057 9.76762e-06)
(4.68406 -0.000114918 6.09192e-06)
(4.68544 -0.000121099 -4.48043e-06)
(4.6871 -0.000121314 -1.89113e-05)
(4.68879 -0.000115243 -2.76989e-05)
(4.69038 -0.000108067 -3.04523e-05)
(4.69198 -0.000105605 -2.95677e-05)
(4.69374 -0.000106394 -2.73478e-05)
(4.69569 -0.00010716 -2.23913e-05)
(4.69782 -0.00010775 -1.30725e-05)
(4.70009 -0.000109207 9.35254e-07)
(4.70254 -0.000114111 1.04941e-05)
(4.70523 -0.000119375 9.91534e-06)
(4.70811 -0.000123809 2.81904e-08)
(4.71111 -0.000125083 -1.0896e-05)
(4.71414 -0.00012403 -1.44458e-05)
(4.71718 -0.000123659 -1.22408e-05)
(4.72025 -0.000123667 -4.76149e-06)
(4.72336 -0.000122586 8.0735e-06)
(4.7265 -0.000122167 1.84333e-05)
(4.72965 -0.000121076 1.9467e-05)
(5.34537 0.0324393 3.94106e-05)
(4.73254 0.0255401 6.22011e-06)
(4.35404 0.00949081 -2.74686e-06)
(4.21881 -0.00185383 4.06788e-06)
(4.24773 -0.0067941 -4.77215e-06)
(4.3385 -0.00654293 -3.53617e-06)
(4.43132 -0.00534634 -2.67888e-06)
(4.50698 -0.00408516 -4.09892e-06)
(4.56344 -0.00300365 -3.76725e-06)
(4.60307 -0.00214209 -5.53756e-07)
(4.62941 -0.00150012 2.11472e-06)
(4.64643 -0.00104887 4.62661e-06)
(4.65742 -0.000743053 5.78502e-06)
(4.66465 -0.000543471 5.26015e-06)
(4.66966 -0.000417809 4.41887e-06)
(4.67343 -0.000335952 3.63117e-06)
(4.67647 -0.000276188 3.93827e-06)
(4.67876 -0.000228665 4.64343e-06)
(4.68038 -0.000189793 5.73251e-06)
(4.6815 -0.000156806 8.80232e-06)
(4.68231 -0.000131138 1.15295e-05)
(4.68305 -0.000115853 1.20057e-05)
(4.68401 -0.000114989 1.10652e-05)
(4.68539 -0.000120777 7.6359e-06)
(4.68708 -0.000121138 -9.28374e-07)
(4.68878 -0.000115802 -1.40166e-05)
(4.69038 -0.000109304 -2.55514e-05)
(4.69199 -0.000106496 -3.13029e-05)
(4.69375 -0.000106589 -2.82063e-05)
(4.69571 -0.000107018 -1.63468e-05)
(4.69785 -0.000108113 -1.21445e-06)
(4.70013 -0.000109893 1.0935e-05)
(4.70259 -0.000114657 1.55568e-05)
(4.70529 -0.000119538 9.76282e-06)
(4.70817 -0.000123862 -4.95979e-06)
(4.71117 -0.000125553 -1.70065e-05)
(4.7142 -0.000124859 -2.00189e-05)
(4.71724 -0.0001243 -1.87715e-05)
(4.72031 -0.000124161 -1.5327e-05)
(4.72342 -0.00012316 -7.41504e-06)
(4.72655 -0.000122368 3.25888e-06)
(4.72972 -0.000121744 3.48488e-06)
(5.3477 0.044035 6.84856e-06)
(4.73431 0.0250501 -1.79118e-05)
(4.35463 0.00632374 -1.50866e-05)
(4.2188 -0.00391545 -2.83185e-06)
(4.24765 -0.00771473 3.70933e-06)
(4.33853 -0.00690409 3.32005e-06)
(4.43146 -0.00550265 1.34045e-06)
(4.50719 -0.00413044 -1.96932e-06)
(4.56365 -0.00301011 -3.81547e-07)
(4.60328 -0.00214484 7.08382e-06)
(4.62963 -0.00150119 8.72444e-06)
(4.64665 -0.00104843 1.00252e-05)
(4.65763 -0.000740842 9.21794e-06)
(4.66483 -0.000542012 6.47256e-06)
(4.66983 -0.000417301 5.87977e-06)
(4.6736 -0.000336085 4.35035e-06)
(4.67662 -0.000275781 3.84369e-06)
(4.6789 -0.000227445 3.96815e-06)
(4.6805 -0.000188038 4.25635e-06)
(4.68159 -0.000155296 1.14998e-05)
(4.68238 -0.000130109 1.70776e-05)
(4.68311 -0.000115354 1.75352e-05)
(4.68406 -0.000115131 1.69783e-05)
(4.68543 -0.000121106 1.46987e-05)
(4.6871 -0.00012117 6.57218e-06)
(4.68878 -0.000115152 -1.49583e-05)
(4.69037 -0.000108408 -4.00096e-05)
(4.69197 -0.000106278 -5.19955e-05)
(4.69373 -0.000107176 -5.00559e-05)
(4.69568 -0.000107985 -3.4702e-05)
(4.69781 -0.000108507 -2.45234e-06)
(4.70009 -0.000109702 2.55017e-05)
(4.70255 -0.000114152 3.05995e-05)
(4.70524 -0.000119255 2.50938e-05)
(4.70813 -0.000123833 3.1993e-06)
(4.71112 -0.000125441 -2.04851e-05)
(4.71414 -0.000124615 -2.56798e-05)
(4.71717 -0.000123881 -2.13964e-05)
(4.72025 -0.000123742 -1.35753e-05)
(4.72335 -0.000123055 -2.40124e-06)
(4.72648 -0.000122689 7.4754e-06)
(4.72965 -0.000122412 9.21176e-06)
(5.34535 0.0324422 -1.83091e-06)
(4.73254 0.0255382 -9.37396e-06)
(4.35408 0.00948696 -5.77535e-06)
(4.21885 -0.00185409 1.07971e-06)
(4.24776 -0.00679348 8.97547e-07)
(4.33852 -0.00654254 -1.36851e-06)
(4.43133 -0.00534613 -2.24086e-06)
(4.50699 -0.00408512 -3.53791e-06)
(4.56345 -0.0030036 1.38058e-08)
(4.60308 -0.00214219 8.97357e-06)
(4.62943 -0.00150046 9.98534e-06)
(4.64645 -0.00104913 1.09819e-05)
(4.65743 -0.000742883 1.00559e-05)
(4.66465 -0.000542986 6.93709e-06)
(4.66964 -0.000417342 7.0492e-06)
(4.6734 -0.00033543 5.31159e-06)
(4.67641 -0.000275691 4.2158e-06)
(4.67868 -0.000228033 4.93681e-06)
(4.68028 -0.000188793 5.12056e-06)
(4.68138 -0.000156133 1.3329e-05)
(4.68217 -0.000130793 2.06913e-05)
(4.68289 -0.000115543 1.91011e-05)
(4.68382 -0.000115052 1.46698e-05)
(4.68517 -0.000121186 1.25215e-05)
(4.68682 -0.000121446 1.05687e-05)
(4.68849 -0.000115492 -4.06762e-06)
(4.69008 -0.000108266 -3.71368e-05)
(4.69167 -0.000104747 -5.34772e-05)
(4.69343 -0.000104434 -4.84835e-05)
(4.6954 -0.00010509 -2.64404e-05)
(4.69756 -0.000107965 3.62246e-06)
(4.69987 -0.000111799 2.31903e-05)
(4.70234 -0.000117324 2.73598e-05)
(4.70504 -0.000120943 2.46895e-05)
(4.70792 -0.00012373 5.72197e-06)
(4.71092 -0.000124355 -2.18043e-05)
(4.71395 -0.000124002 -2.97247e-05)
(4.717 -0.000124169 -2.63124e-05)
(4.72009 -0.000124364 -1.69468e-05)
(4.72322 -0.000123313 -5.44545e-06)
(4.72636 -0.000122723 -2.06083e-06)
(4.72954 -0.000122452 -6.57435e-06)
(5.34769 0.0440362 -4.40499e-06)
(4.73429 0.0250502 -6.10961e-06)
(4.3546 0.00632301 1.63756e-06)
(4.21878 -0.00391604 4.48816e-06)
(4.24765 -0.00771518 2.91879e-06)
(4.33854 -0.00690428 8.71932e-07)
(4.43147 -0.00550263 -7.36605e-07)
(4.5072 -0.00413085 -1.60045e-06)
(4.56366 -0.00301045 2.26916e-06)
(4.60328 -0.00214514 7.40048e-06)
(4.62964 -0.00150172 7.59151e-06)
(4.64666 -0.00104884 6.95336e-06)
(4.65762 -0.000740902 5.0256e-06)
(4.66481 -0.000541762 2.00711e-06)
(4.66978 -0.000416744 1.71449e-06)
(4.67353 -0.000335375 9.00058e-07)
(4.67653 -0.000274955 2.11875e-07)
(4.67878 -0.000226707 2.10125e-06)
(4.68035 -0.000187507 4.12486e-06)
(4.68143 -0.000155134 7.95113e-06)
(4.68221 -0.000130699 1.15479e-05)
(4.68292 -0.000115789 9.42549e-06)
(4.68383 -0.000114467 6.05994e-06)
(4.68518 -0.000120342 5.59673e-06)
(4.68682 -0.000121416 3.91643e-06)
(4.68848 -0.00011558 -6.53926e-06)
(4.69005 -0.000107087 -2.58899e-05)
(4.69164 -0.00010327 -3.51926e-05)
(4.6934 -0.00010459 -2.53958e-05)
(4.69538 -0.000107386 -6.36187e-06)
(4.69754 -0.000109494 4.05518e-06)
(4.69984 -0.000111258 5.83542e-06)
(4.70232 -0.000116246 9.27036e-06)
(4.70501 -0.00012092 1.40724e-05)
(4.70789 -0.00012449 1.05353e-05)
(4.71088 -0.000124448 -4.50618e-06)
(4.71391 -0.000123076 -1.79162e-05)
(4.71695 -0.000122982 -1.88613e-05)
(4.72003 -0.000123711 -1.26434e-05)
(4.72316 -0.000123552 -7.1719e-06)
(4.72631 -0.000123504 -7.90585e-06)
(4.7295 -0.000122655 -8.7872e-06)
(5.34535 0.0324419 -1.48537e-05)
(4.73254 0.0255378 -2.03045e-05)
(4.35407 0.00948671 -1.33169e-05)
(4.21885 -0.00185411 -8.40381e-06)
(4.24776 -0.00679337 -9.9854e-08)
(4.33853 -0.00654259 3.59841e-06)
(4.43133 -0.00534624 -2.19472e-07)
(4.507 -0.00408542 1.09152e-06)
(4.56345 -0.00300383 5.21513e-06)
(4.60307 -0.00214222 5.54945e-06)
(4.62942 -0.00150051 7.56427e-06)
(4.64643 -0.00104907 6.72678e-06)
(4.65742 -0.000742721 4.51192e-06)
(4.66464 -0.000542879 3.79837e-06)
(4.66963 -0.000417237 2.4508e-06)
(4.67339 -0.000335355 2.55137e-06)
(4.6764 -0.00027536 2.58581e-06)
(4.67866 -0.000227679 2.29897e-06)
(4.68026 -0.000188907 3.5917e-06)
(4.68135 -0.000156277 4.28475e-06)
(4.68215 -0.000130754 5.92339e-06)
(4.68286 -0.000114942 7.73577e-06)
(4.68378 -0.00011399 7.21077e-06)
(4.68513 -0.000120678 5.52321e-06)
(4.68678 -0.000121897 2.90831e-06)
(4.68845 -0.000116015 -2.97951e-06)
(4.69003 -0.000107702 -1.06021e-05)
(4.69162 -0.000103883 -1.67767e-05)
(4.69338 -0.000105074 -1.93167e-05)
(4.69536 -0.000107686 -1.60675e-05)
(4.69752 -0.000109541 -6.64678e-06)
(4.69983 -0.000111206 1.15715e-06)
(4.70231 -0.000116174 2.4649e-06)
(4.70501 -0.000121188 -4.58437e-07)
(4.70789 -0.000125265 -4.39542e-06)
(4.71088 -0.000125327 -7.36802e-06)
(4.7139 -0.000123347 -1.02501e-05)
(4.71694 -0.000122876 -9.28489e-06)
(4.72003 -0.000123757 -2.49186e-06)
(4.72317 -0.000123238 6.38912e-06)
(4.72633 -0.000122279 1.19217e-05)
(4.72952 -0.000121593 1.6836e-05)
(5.3477 0.0440344 -1.24878e-05)
(4.73429 0.0250503 1.26035e-05)
(4.35459 0.00632376 2.03055e-05)
(4.21878 -0.00391564 9.43554e-06)
(4.24765 -0.00771493 5.66166e-06)
(4.33854 -0.00690412 3.43964e-06)
(4.43147 -0.00550278 -4.57133e-06)
(4.5072 -0.00413084 -2.17639e-06)
(4.56365 -0.00301035 1.1414e-06)
(4.60327 -0.00214505 1.23171e-06)
(4.62963 -0.00150149 4.64559e-06)
(4.64665 -0.00104861 4.42858e-06)
(4.65761 -0.000740694 7.81576e-07)
(4.6648 -0.000541537 1.40812e-06)
(4.66978 -0.00041656 -7.16528e-07)
(4.67352 -0.000335181 -2.94161e-07)
(4.67652 -0.000274784 6.55022e-07)
(4.67877 -0.000226573 6.10629e-07)
(4.68034 -0.000187375 1.77221e-06)
(4.68142 -0.000155 8.72297e-08)
(4.68221 -0.000130489 4.16739e-07)
(4.68291 -0.000115557 5.87948e-06)
(4.68382 -0.000114262 7.31437e-06)
(4.68517 -0.000120212 2.47924e-06)
(4.68681 -0.000121312 -4.27745e-06)
(4.68848 -0.00011552 -4.28103e-06)
(4.69005 -0.000107008 2.58429e-06)
(4.69163 -0.00010322 2.22231e-06)
(4.69339 -0.000104515 -1.26309e-05)
(4.69537 -0.000107461 -1.86257e-05)
(4.69753 -0.00010951 -1.02435e-05)
(4.69983 -0.000110992 6.41284e-07)
(4.7023 -0.0001158 -1.36754e-06)
(4.705 -0.00012079 -1.03791e-05)
(4.70789 -0.000124802 -1.0352e-05)
(4.71087 -0.000124919 -1.36518e-06)
(4.7139 -0.000123196 6.06049e-06)
(4.71695 -0.000123049 7.2802e-06)
(4.72005 -0.000124073 5.28172e-06)
(4.72319 -0.000124307 2.93866e-06)
(4.72635 -0.000124567 1.54382e-06)
(4.72951 -0.000122836 1.44054e-06)
(5.34538 0.0324086 -0.000143787)
(4.73258 0.0255348 -7.96298e-05)
(4.35409 0.00949263 -1.49307e-06)
(4.21884 -0.00184749 3.27347e-05)
(4.24774 -0.00678818 3.28313e-05)
(4.33849 -0.0065417 2.55748e-05)
(4.43131 -0.00534595 1.48465e-05)
(4.50697 -0.00408523 1.07264e-05)
(4.56343 -0.00300367 1.27192e-05)
(4.60305 -0.00214224 1.22667e-05)
(4.6294 -0.00150036 1.53721e-05)
(4.64642 -0.00104893 1.28116e-05)
(4.65741 -0.00074268 7.98144e-06)
(4.66463 -0.000542788 5.89097e-06)
(4.66962 -0.000417201 2.92681e-06)
(4.67337 -0.000335232 3.08026e-06)
(4.67638 -0.000275355 4.58593e-06)
(4.67865 -0.000227768 5.19526e-06)
(4.68024 -0.000188635 5.91747e-06)
(4.68134 -0.00015589 1.08697e-06)
(4.68213 -0.00013083 -5.94288e-06)
(4.68285 -0.00011573 -3.75136e-06)
(4.68377 -0.000114905 4.70357e-06)
(4.68512 -0.000120726 5.8287e-06)
(4.68676 -0.000120857 2.3817e-06)
(4.68843 -0.00011518 5.86507e-06)
(4.69002 -0.000108148 2.01164e-05)
(4.69161 -0.000104736 2.41499e-05)
(4.69336 -0.000104632 9.54604e-06)
(4.69533 -0.000106233 -1.54905e-05)
(4.69748 -0.000109506 -2.25342e-05)
(4.69978 -0.00011236 -1.69707e-05)
(4.70226 -0.0001163 -1.41995e-05)
(4.70495 -0.000119951 -1.62487e-05)
(4.70783 -0.000123878 -1.44911e-05)
(4.71083 -0.000125251 -5.52798e-07)
(4.71386 -0.000124206 1.43844e-05)
(4.7169 -0.000123678 1.53026e-05)
(4.72 -0.000124123 9.14721e-06)
(4.72314 -0.000123696 2.73529e-06)
(4.7263 -0.000122991 5.40403e-06)
(4.72948 -0.0001216 1.59327e-05)
(5.34734 0.0440729 -2.96536e-06)
(4.73369 0.0250486 -2.56659e-06)
(4.35422 0.00630359 3.01098e-06)
(4.2187 -0.00393257 8.31602e-06)
(4.24767 -0.00772098 1.06409e-05)
(4.33856 -0.00690644 7.33485e-06)
(4.43148 -0.00550411 -2.09922e-06)
(4.50717 -0.00413161 -4.03484e-06)
(4.5636 -0.00301114 -8.82251e-07)
(4.60322 -0.00214585 1.96342e-06)
(4.62956 -0.00150225 5.98873e-06)
(4.64656 -0.00104897 6.1089e-06)
(4.65752 -0.000740875 1.77661e-06)
(4.6647 -0.000541838 -9.7063e-07)
(4.66968 -0.000417183 -4.5767e-06)
(4.67342 -0.000335851 -4.5323e-06)
(4.67642 -0.000275295 -1.89576e-06)
(4.67867 -0.000227062 5.39721e-07)
(4.68024 -0.000187688 3.15118e-06)
(4.68131 -0.000155112 3.50888e-08)
(4.6821 -0.000130466 -7.02845e-06)
(4.68282 -0.000115874 -8.26699e-06)
(4.68376 -0.000115403 -3.90809e-06)
(4.68513 -0.000121178 -4.99516e-07)
(4.68677 -0.000121192 3.65376e-08)
(4.68843 -0.000115288 4.62e-06)
(4.69001 -0.000108462 1.66447e-05)
(4.6916 -0.000105822 1.72891e-05)
(4.69335 -0.000106145 -6.32135e-06)
(4.69531 -0.000106799 -3.03114e-05)
(4.69744 -0.000108303 -3.18328e-05)
(4.69973 -0.000110505 -1.63632e-05)
(4.70221 -0.000115226 4.36087e-06)
(4.7049 -0.000119927 6.19858e-06)
(4.70779 -0.000124012 8.02913e-07)
(4.71079 -0.000125354 5.68448e-07)
(4.71384 -0.000124849 9.00404e-06)
(4.71689 -0.000124349 1.6732e-05)
(4.71999 -0.000124361 1.596e-05)
(4.72312 -0.000124239 1.00187e-05)
(4.72628 -0.000124748 4.50589e-06)
(4.72945 -0.000124024 3.79528e-06)
(5.34538 0.0324083 0.000131467)
(4.73257 0.0255347 7.02198e-05)
(4.35408 0.00949298 -3.70553e-06)
(4.21883 -0.00184707 -3.43515e-05)
(4.24771 -0.00678775 -2.90018e-05)
(4.33847 -0.00654144 -2.39086e-05)
(4.4313 -0.00534599 -2.54603e-05)
(4.50697 -0.00408524 -2.19704e-05)
(4.56343 -0.00300367 -1.74619e-05)
(4.60306 -0.0021423 -1.262e-05)
(4.6294 -0.0015003 -8.10591e-06)
(4.64642 -0.00104886 -5.23563e-06)
(4.6574 -0.000742665 -6.77043e-06)
(4.66462 -0.000542724 -8.58161e-06)
(4.66961 -0.000417185 -1.09e-05)
(4.67337 -0.000335213 -9.68085e-06)
(4.67638 -0.000275308 -6.42007e-06)
(4.67865 -0.000227783 -4.50756e-06)
(4.68024 -0.000188831 -3.27629e-06)
(4.68134 -0.000156182 -6.63369e-06)
(4.68213 -0.000130693 -1.16114e-05)
(4.68284 -0.00011517 -1.09428e-05)
(4.68378 -0.000114762 -7.31421e-06)
(4.68514 -0.000120856 -3.56439e-06)
(4.68677 -0.000120679 -3.97791e-07)
(4.68844 -0.000115288 2.51718e-06)
(4.69002 -0.000109453 6.84499e-06)
(4.69161 -0.000105956 1.03984e-05)
(4.69336 -0.000104398 7.31267e-06)
(4.69532 -0.00010302 -2.31632e-06)
(4.69748 -0.000106039 -1.563e-05)
(4.6998 -0.000112364 -2.73882e-05)
(4.7023 -0.000120205 -3.27579e-05)
(4.705 -0.0001237 -2.74004e-05)
(4.70788 -0.000125294 -1.7936e-05)
(4.71088 -0.000124206 -6.58532e-07)
(4.71393 -0.000122818 1.9058e-05)
(4.71698 -0.000123355 2.71281e-05)
(4.72007 -0.000124345 2.11657e-05)
(4.72318 -0.000123705 -4.36951e-06)
(4.72632 -0.000123162 -1.69723e-05)
(4.72951 -0.000122101 -1.03153e-05)
(5.3477 0.0440331 -6.14575e-06)
(4.73429 0.0250503 -4.71619e-06)
(4.35459 0.00632449 6.14518e-06)
(4.21877 -0.00391509 8.91116e-06)
(4.24762 -0.00771435 1.06439e-05)