/*--------------------------------*- C++ -*----------------------------------*\
  =========                 |
  \\      /  F ield         | OpenFOAM: The Open Source CFD Toolbox
   \\    /   O peration     | Website:  https://openfoam.org
    \\  /    A nd           | Version:  9
     \\/     M anipulation  |
\*---------------------------------------------------------------------------*/
FoamFile
{
    format      ascii;
    class       volScalarField;
    location    "1200";
    object      k;
}
// * * * * * * * * * * * * * * * * * * * * * * * * * * * * * * * * * * * * * //

dimensions      [0 2 -2 0 0 0 0];

internalField   nonuniform List<scalar> 
82710
(
0.62664
0.627579
0.628577
0.629556
0.630486
0.631346
0.632163
0.633069
0.634071
0.635063
0.636009
0.636858
0.637629
0.638515
0.639526
0.640505
0.641422
0.642252
0.643025
0.643901
0.644869
0.6458
0.646673
0.647496
0.648304
0.649169
0.650073
0.650962
0.651849
0.652689
0.653476
0.65427
0.655082
0.655953
0.656908
0.657607
0.658678
0.626649
0.627586
0.628584
0.629563
0.630492
0.631348
0.632162
0.63307
0.634071
0.635061
0.636005
0.636857
0.637636
0.638524
0.639532
0.640507
0.64142
0.642252
0.643028
0.643903
0.644868
0.645799
0.646674
0.647499
0.648306
0.649171
0.650074
0.650964
0.651851
0.65269
0.653475
0.654271
0.655089
0.655959
0.65691
0.657607
0.658679
0.626648
0.627584
0.628592
0.629571
0.630498
0.631355
0.632159
0.633065
0.634079
0.635072
0.636013
0.63686
0.637639
0.638526
0.639533
0.640512
0.641425
0.642254
0.643029
0.643904
0.64487
0.645803
0.64668
0.647502
0.648306
0.649169
0.650075
0.650968
0.651855
0.652691
0.653473
0.654268
0.655089
0.655963
0.656911
0.657604
0.658677
0.626656
0.627588
0.628602
0.62958
0.630505
0.631361
0.632156
0.633064
0.634084
0.635073
0.636011
0.636863
0.637646
0.638533
0.639538
0.640511
0.641424
0.642256
0.643033
0.643907
0.644869
0.645802
0.646683
0.647506
0.648309
0.64917
0.650076
0.65097
0.651858
0.652693
0.653472
0.654272
0.655098
0.655971
0.656915
0.657606
0.658678
0.626655
0.627588
0.628604
0.629585
0.630511
0.631363
0.632155
0.633062
0.634087
0.63508
0.636016
0.636862
0.637645
0.638535
0.639541
0.640515
0.641426
0.642257
0.643035
0.64391
0.644871
0.645804
0.646687
0.647512
0.648314
0.649172
0.650077
0.650973
0.651863
0.652698
0.653475
0.654269
0.655097
0.655975
0.656918
0.657606
0.658679
0.626648
0.627585
0.628606
0.629585
0.630508
0.631362
0.632155
0.633065
0.634092
0.635081
0.636014
0.636861
0.637648
0.638539
0.639543
0.640513
0.641423
0.642258
0.64304
0.643915
0.644872
0.645804
0.64669
0.647517
0.648318
0.649175
0.650078
0.650975
0.651866
0.652699
0.653473
0.654271
0.655107
0.655984
0.656922
0.657608
0.658681
0.626639
0.627579
0.628604
0.629584
0.630508
0.631363
0.632156
0.633064
0.634091
0.635081
0.636012
0.63686
0.637648
0.63854
0.639543
0.640511
0.641421
0.642257
0.643042
0.643916
0.64487
0.645801
0.64669
0.647523
0.648323
0.649174
0.650075
0.650975
0.651871
0.652704
0.653472
0.654266
0.655105
0.655988
0.656925
0.657606
0.658679
0.626632
0.627576
0.628604
0.629582
0.630502
0.631358
0.632155
0.633068
0.634096
0.635083
0.63601
0.636856
0.637647
0.638541
0.63954
0.640506
0.641415
0.642255
0.643046
0.64392
0.644868
0.645798
0.646691
0.647525
0.648323
0.649173
0.650073
0.650974
0.651871
0.652701
0.653467
0.654265
0.655111
0.655993
0.656925
0.657604
0.658678
0.626632
0.627574
0.628603
0.629582
0.630503
0.631359
0.632157
0.633069
0.634097
0.635081
0.636005
0.636853
0.637647
0.638543
0.639542
0.640502
0.641409
0.642253
0.643048
0.643921
0.644865
0.645791
0.646688
0.647528
0.648327
0.64917
0.650066
0.650972
0.651875
0.652705
0.653464
0.654257
0.655107
0.655996
0.656927
0.657599
0.658672
0.626628
0.627573
0.6286
0.629576
0.630496
0.631356
0.632159
0.633074
0.634102
0.635084
0.636003
0.636847
0.637644
0.638542
0.63954
0.640499
0.641404
0.642249
0.643049
0.643923
0.644863
0.645788
0.646686
0.647527
0.648325
0.649168
0.650062
0.650967
0.651872
0.652701
0.653459
0.654255
0.655109
0.655996
0.656924
0.657596
0.65867
0.626625
0.627575
0.628591
0.629565
0.630493
0.631358
0.632162
0.633074
0.6341
0.635079
0.635996
0.636843
0.637643
0.638543
0.639541
0.640494
0.641396
0.642246
0.64305
0.643925
0.644861
0.645781
0.64668
0.647526
0.648326
0.649166
0.650058
0.650964
0.651872
0.652701
0.653457
0.65425
0.655105
0.655996
0.656923
0.657592
0.658665
0.62662
0.627572
0.628595
0.629567
0.630488
0.631351
0.632158
0.633073
0.634101
0.635082
0.635995
0.636837
0.637636
0.638539
0.639537
0.640491
0.641393
0.642242
0.643048
0.643922
0.644857
0.645778
0.646678
0.647524
0.648322
0.649161
0.650051
0.650958
0.651867
0.652697
0.653452
0.654246
0.655103
0.655994
0.656919
0.657588
0.658663
0.626611
0.62757
0.628596
0.629565
0.630486
0.63135
0.632157
0.63307
0.634097
0.635075
0.635989
0.636836
0.637636
0.638538
0.639536
0.640487
0.641388
0.642239
0.643047
0.643922
0.644855
0.645774
0.646673
0.64752
0.648319
0.649158
0.650049
0.650956
0.651865
0.652695
0.65345
0.654244
0.655102
0.655992
0.656916
0.657586
0.658661
0.626611
0.62757
0.628596
0.629567
0.630486
0.631348
0.632156
0.63307
0.6341
0.63508
0.635992
0.636835
0.637633
0.638535
0.639533
0.640487
0.641388
0.642236
0.643041
0.643916
0.644851
0.645772
0.646672
0.647517
0.648315
0.649153
0.650045
0.650952
0.65186
0.65269
0.653446
0.654241
0.655098
0.655988
0.656912
0.657584
0.65866
0.626611
0.627571
0.628596
0.629563
0.630483
0.631348
0.632158
0.633072
0.634099
0.635077
0.635989
0.636834
0.637632
0.638533
0.63953
0.640484
0.641387
0.642235
0.643039
0.643913
0.644848
0.64577
0.64667
0.647512
0.648308
0.649149
0.650044
0.650953
0.651858
0.652685
0.653443
0.654242
0.655101
0.655988
0.656909
0.657583
0.65866
0.626612
0.62757
0.628595
0.629562
0.63048
0.631345
0.632156
0.633071
0.6341
0.635078
0.635991
0.636835
0.63763
0.638529
0.639527
0.640483
0.641387
0.642233
0.643032
0.643906
0.644846
0.645769
0.646667
0.647509
0.648304
0.649147
0.650045
0.650953
0.651854
0.652682
0.653443
0.65424
0.655096
0.655984
0.656907
0.657583
0.658661
0.626619
0.627568
0.628592
0.629561
0.630479
0.631343
0.632155
0.63307
0.634098
0.635075
0.635989
0.636833
0.637627
0.638527
0.639525
0.640484
0.641391
0.642234
0.643029
0.643901
0.644844
0.645773
0.64667
0.647504
0.648297
0.649144
0.650047
0.650955
0.651852
0.652675
0.653439
0.654245
0.655102
0.655982
0.656903
0.657582
0.658662
0.626618
0.627569
0.628591
0.629557
0.630476
0.631342
0.632156
0.633072
0.634101
0.635078
0.635993
0.636838
0.637627
0.638525
0.639524
0.640485
0.641394
0.642235
0.643026
0.643899
0.644847
0.645775
0.646667
0.647501
0.648296
0.649146
0.650052
0.650958
0.65185
0.652674
0.653443
0.654246
0.655097
0.655978
0.656902
0.657583
0.658663
0.626622
0.627572
0.628583
0.629552
0.630478
0.631348
0.632162
0.633076
0.634102
0.635078
0.635995
0.636841
0.637629
0.638525
0.639525
0.640491
0.641403
0.64224
0.643026
0.643898
0.64485
0.645783
0.646673
0.6475
0.648294
0.64915
0.65006
0.650962
0.651847
0.652671
0.653445
0.654255
0.655104
0.655977
0.6569
0.657587
0.658669
0.626622
0.627576
0.628595
0.629559
0.630479
0.631347
0.632162
0.633077
0.634105
0.635083
0.636001
0.636845
0.637628
0.638523
0.639525
0.640494
0.641408
0.642245
0.643029
0.643902
0.644858
0.64579
0.646674
0.6475
0.648297
0.649154
0.650065
0.650967
0.651849
0.652674
0.653452
0.654258
0.6551
0.655976
0.656903
0.657589
0.658669
0.626619
0.627579
0.628599
0.629562
0.630481
0.631349
0.632164
0.63308
0.634105
0.635083
0.636002
0.636846
0.637628
0.638522
0.639526
0.640498
0.641414
0.642247
0.643029
0.643902
0.644862
0.645795
0.646675
0.647497
0.648298
0.649165
0.650076
0.650967
0.651842
0.652673
0.653461
0.654271
0.655106
0.65597
0.656901
0.657598
0.658679
0.62662
0.627582
0.628601
0.629562
0.630481
0.631349
0.632164
0.633078
0.634104
0.635083
0.636004
0.636847
0.637626
0.638519
0.639524
0.640499
0.641415
0.642248
0.64303
0.643905
0.644868
0.645799
0.646674
0.647496
0.648299
0.649166
0.650078
0.650971
0.651845
0.652676
0.653467
0.654273
0.655102
0.655968
0.656903
0.6576
0.658678
0.626623
0.627583
0.6286
0.629562
0.630481
0.63135
0.632166
0.633081
0.634106
0.635084
0.636005
0.636849
0.637628
0.63852
0.639525
0.640501
0.641419
0.64225
0.64303
0.643906
0.644869
0.6458
0.646673
0.647494
0.648301
0.649171
0.650082
0.650969
0.651841
0.652675
0.65347
0.65428
0.655105
0.655966
0.656903
0.657604
0.658682
0.626628
0.627585
0.628601
0.629563
0.630483
0.631353
0.632168
0.63308
0.634103
0.635082
0.636006
0.636851
0.63763
0.638522
0.639527
0.640504
0.641421
0.642252
0.643032
0.643909
0.644875
0.645804
0.646673
0.647491
0.6483
0.649171
0.650082
0.65097
0.651842
0.652677
0.653475
0.65428
0.655099
0.655961
0.656903
0.657605
0.658683
0.626635
0.627585
0.628601
0.629563
0.630482
0.63135
0.632165
0.633081
0.634105
0.635083
0.636007
0.636853
0.637631
0.638523
0.639528
0.640504
0.641422
0.642253
0.643034
0.643911
0.644876
0.645804
0.646671
0.64749
0.6483
0.649173
0.650084
0.650968
0.651839
0.652674
0.653474
0.654283
0.655101
0.655961
0.656902
0.657606
0.658685
0.62664
0.627586
0.628601
0.629566
0.630487
0.631353
0.632165
0.633077
0.634098
0.635079
0.636006
0.636853
0.637633
0.638525
0.63953
0.640507
0.641424
0.642254
0.643034
0.643912
0.644878
0.645806
0.646671
0.647489
0.648299
0.649173
0.650082
0.650968
0.651841
0.652678
0.653477
0.654282
0.655096
0.655956
0.656901
0.657607
0.658685
0.626643
0.627586
0.628599
0.629564
0.630486
0.631355
0.632166
0.633078
0.634099
0.63508
0.636009
0.636856
0.637634
0.638524
0.63953
0.640507
0.641423
0.642254
0.643035
0.643914
0.644879
0.645804
0.646668
0.647489
0.648302
0.649174
0.65008
0.650963
0.651838
0.652678
0.653477
0.65428
0.655091
0.655954
0.656903
0.657608
0.658684
0.626641
0.627581
0.62859
0.62956
0.630489
0.631356
0.632164
0.633071
0.634088
0.635072
0.636005
0.636855
0.637634
0.638525
0.639532
0.640509
0.641425
0.642252
0.643031
0.643909
0.644875
0.645803
0.646669
0.647488
0.648301
0.649173
0.650078
0.650963
0.651841
0.652681
0.653477
0.654277
0.655087
0.655951
0.656902
0.657608
0.658683
0.62664
0.62758
0.628588
0.629558
0.630484
0.631349
0.632159
0.633069
0.634085
0.63507
0.636005
0.636852
0.63763
0.638521
0.639528
0.640504
0.641418
0.642248
0.643029
0.643909
0.644875
0.645799
0.646665
0.647489
0.648302
0.649172
0.650075
0.65096
0.65184
0.652682
0.653477
0.654274
0.655083
0.65595
0.656903
0.657605
0.658679
0.626641
0.62758
0.628582
0.629556
0.630486
0.631348
0.63216
0.633068
0.634076
0.635062
0.636002
0.636852
0.63763
0.638522
0.639531
0.640506
0.641419
0.642247
0.643025
0.643905
0.644871
0.645799
0.646668
0.64749
0.648303
0.649173
0.650077
0.650962
0.651844
0.652686
0.653478
0.654275
0.655085
0.655951
0.656905
0.657608
0.658681
0.790371
0.791613
0.792568
0.793269
0.793987
0.795006
0.796341
0.797721
0.798807
0.799522
0.800188
0.801155
0.802447
0.803777
0.804815
0.805534
0.806249
0.807227
0.808447
0.809668
0.810656
0.811424
0.812199
0.813152
0.814266
0.815416
0.816464
0.817345
0.818103
0.818874
0.81982
0.820988
0.822176
0.823112
0.823788
0.824236
0.82597
0.790362
0.791614
0.792582
0.793285
0.793999
0.795009
0.79634
0.797719
0.79881
0.799533
0.800199
0.801156
0.802438
0.803769
0.804819
0.80555
0.806262
0.807226
0.808435
0.809658
0.810658
0.811434
0.812205
0.813149
0.81426
0.815414
0.816467
0.817347
0.818101
0.81887
0.81982
0.820991
0.822179
0.823114
0.823791
0.824242
0.825974
0.7904
0.791639
0.792587
0.793271
0.793989
0.795021
0.796365
0.797743
0.798813
0.79952
0.80019
0.801162
0.802452
0.803781
0.804824
0.80555
0.806263
0.807231
0.808442
0.809664
0.810662
0.811435
0.812205
0.813149
0.814262
0.815419
0.816473
0.817348
0.818096
0.818866
0.819824
0.821001
0.822187
0.823111
0.823781
0.824239
0.82598
0.790395
0.791648
0.792598
0.793273
0.793986
0.795025
0.796379
0.797756
0.798815
0.799515
0.800188
0.801164
0.802456
0.803786
0.804831
0.805559
0.806269
0.807231
0.808438
0.809662
0.810665
0.811441
0.812207
0.813146
0.81426
0.815422
0.816478
0.817348
0.818091
0.818862
0.819826
0.821008
0.822191
0.82311
0.823782
0.824247
0.825989
0.7904
0.79165
0.792596
0.793268
0.793983
0.795032
0.796391
0.797764
0.798814
0.799508
0.800187
0.801171
0.802463
0.803788
0.80483
0.80556
0.806274
0.807235
0.808437
0.809661
0.810672
0.811453
0.812214
0.813143
0.814255
0.815428
0.816492
0.817355
0.818083
0.818851
0.819829
0.821026
0.822205
0.823106
0.823767
0.824242
0.825998
0.790415
0.791655
0.792586
0.793251
0.793973
0.795031
0.796394
0.797765
0.798811
0.799505
0.800189
0.801178
0.802469
0.803789
0.804829
0.805563
0.806281
0.80724
0.808436
0.809657
0.810673
0.811461
0.812222
0.813144
0.814251
0.815429
0.816498
0.817359
0.818081
0.818847
0.819829
0.821032
0.82221
0.823105
0.823768
0.82425
0.826009
0.790419
0.791659
0.792585
0.793246
0.793967
0.795025
0.79639
0.797765
0.798813
0.799507
0.80019
0.801177
0.802466
0.803784
0.804825
0.805566
0.806288
0.807243
0.80843
0.80965
0.810675
0.811473
0.812231
0.813142
0.814245
0.815429
0.816506
0.817363
0.818073
0.818838
0.819834
0.821049
0.822221
0.823098
0.823754
0.824248
0.826018
0.790419
0.791653
0.792569
0.793228
0.793959
0.795028
0.796394
0.797762
0.798805
0.799502
0.800193
0.801188
0.802474
0.803781
0.804816
0.805561
0.806291
0.807249
0.808432
0.809645
0.810672
0.811475
0.812236
0.813142
0.81424
0.815427
0.816508
0.817365
0.818071
0.818833
0.819831
0.821051
0.822222
0.823094
0.823751
0.824253
0.826025
0.79041
0.791649
0.792572
0.793235
0.793964
0.795029
0.796392
0.797758
0.798801
0.7995
0.800197
0.801192
0.802471
0.803772
0.804808
0.805562
0.806301
0.807254
0.808424
0.809633
0.810668
0.811485
0.812247
0.81314
0.81423
0.815422
0.816511
0.817365
0.818063
0.818826
0.819838
0.821064
0.822225
0.823079
0.823736
0.824254
0.826032
0.790425
0.791639
0.79255
0.79322
0.793964
0.795037
0.796396
0.797752
0.79879
0.799493
0.8002
0.801204
0.802481
0.803767
0.804794
0.805553
0.806304
0.807263
0.808427
0.809624
0.810657
0.811483
0.812251
0.813142
0.814226
0.815417
0.81651
0.817366
0.818062
0.818821
0.819832
0.821062
0.822222
0.823073
0.82373
0.824254
0.826035
0.790518
0.791644
0.792508
0.793188
0.793953
0.795036
0.796395
0.797749
0.798785
0.79949
0.800201
0.801204
0.802476
0.803758
0.804786
0.805553
0.80631
0.807265
0.808419
0.809613
0.810653
0.811487
0.812257
0.813139
0.814216
0.815409
0.816508
0.817366
0.818059
0.818817
0.819832
0.821064
0.82222
0.823065
0.823725
0.824254
0.826033
0.790447
0.791634
0.792528
0.793206
0.793962
0.795035
0.796386
0.797734
0.798772
0.799484
0.800204
0.801213
0.802481
0.803754
0.804776
0.805545
0.806309
0.807268
0.80842
0.809608
0.810645
0.811482
0.812255
0.813138
0.814215
0.815408
0.816507
0.817364
0.818056
0.818814
0.819829
0.821059
0.822213
0.823058
0.823722
0.824257
0.826035
0.79042
0.791614
0.792521
0.793207
0.793962
0.79503
0.796377
0.797728
0.798769
0.799485
0.800205
0.801212
0.80248
0.803752
0.804773
0.805544
0.806308
0.807266
0.808416
0.809602
0.810641
0.811482
0.812255
0.813135
0.814208
0.815402
0.816504
0.817363
0.818054
0.81881
0.819826
0.821058
0.82221
0.823054
0.823721
0.824256
0.82603
0.790405
0.7916
0.792512
0.793205
0.793967
0.795037
0.796381
0.797724
0.798761
0.799479
0.800207
0.801221
0.802489
0.803756
0.80477
0.805537
0.806302
0.807264
0.808418
0.809606
0.810642
0.811477
0.812247
0.81313
0.81421
0.815406
0.816506
0.817361
0.818052
0.81881
0.819825
0.821051
0.822201
0.823049
0.823723
0.824261
0.826029
0.79042
0.791605
0.792511
0.793205
0.793967
0.795034
0.796376
0.797722
0.798765
0.799487
0.800212
0.801221
0.802486
0.803754
0.804771
0.805538
0.8063
0.80726
0.808415
0.809605
0.810639
0.81147
0.81224
0.813128
0.814213
0.815407
0.816501
0.817353
0.818049
0.818813
0.819827
0.821046
0.822191
0.823047
0.82373
0.824265
0.826024
0.790428
0.791616
0.792515
0.793202
0.793963
0.795033
0.796377
0.797722
0.798761
0.799481
0.800206
0.801217
0.802486
0.803758
0.804773
0.805532
0.806287
0.807248
0.808411
0.80961
0.810643
0.811465
0.812228
0.813118
0.814211
0.81541
0.816502
0.817353
0.818049
0.818816
0.819827
0.821039
0.822184
0.823046
0.823734
0.824268
0.826021
0.790409
0.791609
0.792522
0.79321
0.793966
0.795031
0.79637
0.797715
0.798759
0.799484
0.800209
0.801216
0.802482
0.803756
0.804773
0.80553
0.80628
0.807241
0.80841
0.809612
0.810639
0.811452
0.812215
0.81312
0.814222
0.815414
0.816491
0.817338
0.818047
0.818826
0.819832
0.821029
0.822168
0.823042
0.823743
0.824274
0.826018
0.79042
0.791613
0.79252
0.793205
0.793961
0.795027
0.79637
0.797718
0.798764
0.799485
0.800204
0.801206
0.802477
0.803759
0.80478
0.805529
0.806269
0.807228
0.808406
0.809618
0.810646
0.811448
0.812206
0.813114
0.814221
0.815415
0.81649
0.817338
0.818052
0.818833
0.819834
0.821022
0.822162
0.823045
0.823748
0.824272
0.826012
0.790488
0.791607
0.792483
0.793182
0.793958
0.795034
0.796377
0.797722
0.798767
0.799487
0.800203
0.801204
0.802478
0.803766
0.804787
0.805529
0.806261
0.807224
0.808413
0.809629
0.810646
0.811437
0.812198
0.813122
0.814237
0.81542
0.816479
0.817327
0.818059
0.81885
0.81984
0.821011
0.822149
0.823049
0.823763
0.82428
0.826011
0.790449
0.791623
0.792516
0.793201
0.793962
0.795029
0.796372
0.797722
0.798772
0.799492
0.800202
0.8012
0.802477
0.803772
0.804797
0.805532
0.806258
0.807222
0.808421
0.809644
0.810658
0.811438
0.812196
0.813127
0.814247
0.815425
0.816478
0.817329
0.818069
0.818866
0.819849
0.821007
0.822145
0.823054
0.823773
0.82428
0.826006
0.790425
0.791603
0.792509
0.793208
0.793973
0.795035
0.796371
0.797719
0.798772
0.799496
0.800206
0.8012
0.802475
0.803772
0.8048
0.805535
0.80626
0.807226
0.808428
0.809649
0.810658
0.811437
0.812203
0.813141
0.814256
0.815421
0.816472
0.817336
0.818089
0.818878
0.819841
0.820994
0.822147
0.823074
0.823788
0.824278
0.826001
0.790431
0.791611
0.792514
0.793209
0.79397
0.795031
0.796368
0.797721
0.798777
0.7995
0.800206
0.801197
0.802474
0.803776
0.804805
0.805535
0.806258
0.807228
0.808437
0.809661
0.810664
0.811436
0.812202
0.813148
0.814266
0.815425
0.816469
0.817336
0.818098
0.818892
0.819849
0.82099
0.822143
0.823079
0.823796
0.824277
0.825994
0.790426
0.791599
0.792508
0.793214
0.793981
0.795041
0.796372
0.79772
0.798777
0.799505
0.800213
0.801201
0.802474
0.803776
0.804807
0.805539
0.806261
0.807232
0.808442
0.809664
0.810663
0.811434
0.812206
0.813157
0.814273
0.815422
0.816461
0.817335
0.81811
0.818905
0.819849
0.820979
0.822136
0.823088
0.823811
0.824284
0.82599
0.790434
0.791619
0.792528
0.793223
0.793981
0.795037
0.79637
0.797722
0.798782
0.799509
0.800214
0.8012
0.802474
0.803778
0.804808
0.805539
0.806261
0.807235
0.808447
0.809668
0.810664
0.811433
0.812206
0.813159
0.814274
0.815419
0.816457
0.817337
0.818115
0.818907
0.819846
0.820976
0.822139
0.823095
0.823814
0.824276
0.825981
0.790411
0.791608
0.792532
0.793234
0.793992
0.795044
0.79637
0.797718
0.798779
0.799511
0.800218
0.8012
0.802469
0.803771
0.804804
0.805538
0.806263
0.807238
0.80845
0.809666
0.810656
0.811426
0.812206
0.813166
0.814278
0.815413
0.816445
0.817331
0.818121
0.818916
0.819845
0.820965
0.82213
0.8231
0.823826
0.824281
0.825976
0.790416
0.791624
0.79255
0.793245
0.793994
0.795041
0.796368
0.797719
0.798782
0.799513
0.800217
0.801198
0.802467
0.803771
0.804805
0.805538
0.806262
0.807238
0.808451
0.809666
0.810655
0.811425
0.812205
0.813165
0.814275
0.815409
0.816444
0.817333
0.818121
0.818911
0.819839
0.820965
0.822137
0.823107
0.823824
0.82427
0.825969
0.790403
0.791624
0.792559
0.793255
0.794
0.795041
0.796368
0.797721
0.798785
0.799515
0.800216
0.801195
0.802466
0.803771
0.804806
0.80554
0.806266
0.807243
0.808452
0.809663
0.810652
0.811426
0.81221
0.813168
0.814272
0.815403
0.816441
0.817335
0.818124
0.818911
0.819837
0.820964
0.822138
0.823106
0.823822
0.824271
0.825972
0.790418
0.791631
0.79256
0.793253
0.793994
0.795035
0.796365
0.797724
0.79879
0.799516
0.800211
0.801188
0.802462
0.803771
0.804806
0.805538
0.806264
0.807242
0.808452
0.809662
0.810648
0.811423
0.81221
0.813169
0.814274
0.815405
0.816443
0.817337
0.818121
0.818902
0.819831
0.820968
0.822147
0.82311
0.823813
0.824257
0.825967
0.790399
0.791629
0.792562
0.793254
0.793992
0.795029
0.796358
0.797717
0.798786
0.799515
0.800207
0.80118
0.802453
0.803765
0.804805
0.805542
0.806266
0.807239
0.808445
0.809657
0.81065
0.811429
0.812212
0.813163
0.814265
0.815402
0.816448
0.817344
0.818121
0.818895
0.819824
0.820967
0.822152
0.823111
0.823808
0.824253
0.825966
0.790389
0.791615
0.792557
0.793259
0.793995
0.795024
0.796349
0.797712
0.79879
0.799522
0.800208
0.801174
0.802445
0.803759
0.804801
0.80554
0.806266
0.807238
0.808442
0.809652
0.810644
0.811426
0.812212
0.813164
0.814267
0.815404
0.81645
0.817341
0.818113
0.818886
0.819822
0.820977
0.822164
0.823112
0.823797
0.824242
0.825967
0.783876
0.785032
0.785897
0.786588
0.787385
0.788483
0.78982
0.791107
0.792085
0.792782
0.793523
0.794555
0.795823
0.797042
0.797965
0.798669
0.799442
0.800456
0.801635
0.80275
0.803645
0.804389
0.805189
0.806147
0.807226
0.808306
0.809268
0.810077
0.810794
0.811564
0.812523
0.813651
0.814719
0.815536
0.816128
0.816686
0.818298
0.783866
0.785037
0.785916
0.78661
0.787399
0.788486
0.789815
0.791103
0.79209
0.792797
0.793535
0.794551
0.79581
0.797035
0.797973
0.798688
0.799454
0.800452
0.801622
0.802743
0.803649
0.8044
0.805194
0.806144
0.807221
0.808305
0.809271
0.810079
0.810794
0.811563
0.812524
0.813653
0.814721
0.815539
0.816135
0.816694
0.818301
0.783903
0.785059
0.785915
0.786595
0.787392
0.788501
0.789845
0.791126
0.792089
0.792784
0.79353
0.79456
0.795824
0.797045
0.797975
0.798687
0.799456
0.800459
0.801631
0.802748
0.803651
0.8044
0.805194
0.806145
0.807224
0.808309
0.809273
0.810078
0.810791
0.811563
0.812531
0.813661
0.814723
0.815532
0.816127
0.816694
0.818305
0.783901
0.785069
0.785924
0.786596
0.787392
0.788509
0.789858
0.791135
0.792087
0.792778
0.793529
0.794562
0.795827
0.797049
0.797981
0.798694
0.799461
0.800457
0.801626
0.802746
0.803654
0.804405
0.805196
0.806142
0.807221
0.808311
0.809276
0.810078
0.810787
0.811561
0.812532
0.813664
0.814724
0.815532
0.81613
0.816702
0.818312
0.783905
0.785068
0.78592
0.78659
0.787393
0.788519
0.789871
0.791141
0.792081
0.792771
0.79353
0.794569
0.795833
0.797049
0.797979
0.798696
0.799466
0.800461
0.801625
0.802747
0.803661
0.804415
0.805199
0.806138
0.807219
0.808318
0.809288
0.810081
0.810778
0.811553
0.812539
0.813681
0.814732
0.815523
0.816116
0.816701
0.81832
0.783918
0.785069
0.785905
0.786573
0.787384
0.78852
0.789874
0.79114
0.792077
0.792769
0.793533
0.794575
0.795836
0.797047
0.797978
0.7987
0.799473
0.800464
0.801623
0.802744
0.803665
0.804424
0.805206
0.806137
0.807216
0.80832
0.809293
0.810083
0.810776
0.81155
0.812541
0.813686
0.814736
0.815524
0.81612
0.816711
0.81833
0.783926
0.785074
0.785904
0.786568
0.787378
0.788514
0.789871
0.791142
0.79208
0.79277
0.793532
0.794572
0.795831
0.797044
0.797978
0.798705
0.799478
0.800463
0.801615
0.80274
0.803671
0.804436
0.805211
0.806133
0.807211
0.808323
0.809301
0.810083
0.810767
0.811545
0.812551
0.813702
0.81474
0.815513
0.816109
0.816714
0.818339
0.783925
0.785064
0.785884
0.786552
0.787375
0.788518
0.789873
0.791137
0.792074
0.792768
0.793538
0.794582
0.795837
0.79704
0.79797
0.798702
0.799481
0.800467
0.801617
0.802739
0.803669
0.804437
0.805214
0.806133
0.807211
0.808324
0.809302
0.810083
0.810766
0.811544
0.81255
0.813702
0.814738
0.815511
0.816112
0.816721
0.818344
0.783919
0.785065
0.785892
0.78656
0.78738
0.788519
0.78987
0.791133
0.79207
0.792768
0.79354
0.794583
0.795832
0.797032
0.797967
0.798707
0.799489
0.800467
0.801606
0.802728
0.803671
0.804448
0.80522
0.806129
0.807203
0.808323
0.809305
0.81008
0.810757
0.811542
0.812562
0.813714
0.814735
0.815495
0.816102
0.816728
0.818351
0.783927
0.785047
0.785866
0.786547
0.787384
0.788527
0.78987
0.791123
0.792059
0.792765
0.793548
0.794595
0.795835
0.797023
0.797954
0.798702
0.799494
0.800473
0.801605
0.802719
0.803663
0.804447
0.805223
0.806129
0.8072
0.80832
0.809303
0.810079
0.810755
0.811538
0.812558
0.813711
0.81473
0.815489
0.816099
0.81673
0.818352
0.783996
0.785032
0.785821
0.786515
0.78737
0.788524
0.789869
0.791121
0.792055
0.792762
0.793547
0.794593
0.795829
0.797015
0.797952
0.798707
0.799501
0.800472
0.801594
0.802709
0.803662
0.804453
0.805227
0.806124
0.807191
0.808315
0.809304
0.810079
0.81075
0.811534
0.812559
0.813713
0.814726
0.81548
0.816095
0.81673
0.818349
0.783944
0.785034
0.785843
0.786534
0.78738
0.78852
0.789855
0.791104
0.792044
0.79276
0.793553
0.794602
0.795833
0.79701
0.797942
0.798701
0.7995
0.800474
0.801593
0.802705
0.803658
0.804451
0.805225
0.806122
0.80719
0.808315
0.809303
0.810077
0.810747
0.811531
0.812555
0.813708
0.814719
0.815474
0.816093
0.816732
0.818348
0.783918
0.785017
0.785842
0.786541
0.787383
0.788516
0.789846
0.791098
0.792042
0.79276
0.793554
0.794602
0.795834
0.79701
0.797943
0.798701
0.7995
0.800472
0.801589
0.802701
0.803656
0.804452
0.805224
0.806117
0.807183
0.808311
0.809303
0.810077
0.810744
0.811527
0.812553
0.813707
0.814717
0.815471
0.81609
0.816728
0.818342
0.783906
0.785009
0.785839
0.786544
0.787392
0.788525
0.789851
0.791096
0.792037
0.79276
0.793561
0.794616
0.795846
0.797016
0.797941
0.798695
0.799495
0.800472
0.801594
0.802706
0.803657
0.804446
0.805217
0.806115
0.807187
0.808316
0.809305
0.810074
0.810741
0.811525
0.81255
0.813699
0.814709
0.815468
0.816092
0.81673
0.818338
0.783921
0.785015
0.785843
0.786547
0.787392
0.788523
0.789848
0.791097
0.792044
0.792767
0.793564
0.794614
0.795845
0.797017
0.797945
0.798697
0.799494
0.80047
0.801594
0.802706
0.803653
0.804439
0.805212
0.806115
0.80719
0.808315
0.809298
0.810067
0.810741
0.811529
0.812549
0.813691
0.814701
0.815468
0.816099
0.81673
0.818331
0.783932
0.785026
0.785845
0.786543
0.787388
0.788522
0.789849
0.791097
0.792039
0.79276
0.793559
0.794612
0.795847
0.79702
0.797942
0.798686
0.799479
0.80046
0.801592
0.802708
0.803651
0.804429
0.805199
0.806107
0.807189
0.808316
0.809297
0.810067
0.810742
0.81153
0.812546
0.813683
0.814695
0.815468
0.816101
0.81673
0.818328
0.783911
0.785022
0.785853
0.786551
0.787392
0.788518
0.789839
0.791086
0.792034
0.792761
0.793559
0.794608
0.79584
0.797015
0.79794
0.798683
0.799473
0.800455
0.801591
0.802706
0.803641
0.804414
0.805191
0.806112
0.807197
0.808312
0.809281
0.810054
0.810745
0.81154
0.812546
0.813669
0.814681
0.815469
0.81611
0.816732
0.818324
0.783918
0.78502
0.785845
0.786542
0.787385
0.788514
0.789838
0.791088
0.792034
0.792756
0.793549
0.794599
0.795836
0.797017
0.79794
0.798674
0.799458
0.800443
0.801588
0.802709
0.803641
0.804407
0.805182
0.806107
0.807194
0.80831
0.80928
0.810057
0.81075
0.811544
0.812544
0.813663
0.814679
0.815472
0.816113
0.816729
0.818321
0.783962
0.784998
0.785807
0.78652
0.787381
0.78852
0.789845
0.791092
0.792035
0.792756
0.793546
0.794596
0.795838
0.797023
0.797945
0.798672
0.799452
0.800443
0.801596
0.802716
0.803636
0.804396
0.805181
0.806119
0.807208
0.80831
0.809268
0.810052
0.810763
0.811561
0.812546
0.813652
0.814673
0.815482
0.816127
0.816735
0.818323
0.783942
0.785023
0.785839
0.786539
0.787385
0.788516
0.78984
0.791092
0.792039
0.792759
0.793546
0.794595
0.795842
0.797031
0.797953
0.798673
0.79945
0.800445
0.801606
0.802731
0.803647
0.8044
0.805183
0.806126
0.807216
0.808315
0.809272
0.810059
0.810775
0.811574
0.812553
0.813652
0.814674
0.815489
0.816134
0.816736
0.818322
0.783916
0.785005
0.785837
0.786551
0.787399
0.788521
0.789837
0.791088
0.79204
0.792764
0.793551
0.794597
0.795843
0.797035
0.797958
0.798679
0.799456
0.800452
0.801614
0.802735
0.803648
0.804405
0.805197
0.806141
0.807221
0.808311
0.809272
0.810073
0.810796
0.811582
0.812543
0.813644
0.814686
0.815511
0.816144
0.816731
0.818322
0.783924
0.785014
0.785843
0.786551
0.787394
0.788516
0.789836
0.791092
0.792046
0.792767
0.79355
0.794596
0.795846
0.797041
0.797964
0.798679
0.799455
0.800457
0.801625
0.802747
0.803654
0.804406
0.805199
0.806149
0.80723
0.808314
0.809272
0.810078
0.810806
0.811593
0.812548
0.813642
0.814685
0.815516
0.816148
0.816728
0.818316
0.783915
0.785004
0.785841
0.786559
0.787407
0.788525
0.78984
0.791093
0.79205
0.792776
0.793558
0.7946
0.795847
0.797044
0.797969
0.798685
0.79946
0.800461
0.801629
0.802749
0.803653
0.804407
0.805206
0.806159
0.807234
0.80831
0.809267
0.81008
0.810818
0.811602
0.812543
0.813631
0.814683
0.815527
0.81616
0.816731
0.818313
0.783928
0.785026
0.785857
0.786564
0.787403
0.788519
0.789838
0.791097
0.792055
0.792778
0.793558
0.794599
0.795847
0.797045
0.797969
0.798683
0.799459
0.800464
0.801633
0.802751
0.803652
0.804405
0.805205
0.806159
0.807232
0.808305
0.809264
0.810083
0.81082
0.8116
0.812539
0.813629
0.814687
0.815532
0.816159
0.81672
0.818304
0.783904
0.785018
0.785863
0.786574
0.787411
0.788523
0.789835
0.791091
0.792052
0.792779
0.793559
0.794595
0.795839
0.797037
0.797964
0.798681
0.799459
0.800464
0.801632
0.802746
0.803643
0.804397
0.805205
0.806163
0.807232
0.808296
0.809251
0.810077
0.810825
0.811605
0.812534
0.813617
0.814682
0.81554
0.81617
0.816722
0.818298
0.783915
0.785038
0.78588
0.786582
0.787411
0.78852
0.789835
0.791094
0.792057
0.792781
0.793557
0.794592
0.795837
0.797037
0.797965
0.79868
0.799457
0.800463
0.801632
0.802745
0.803641
0.804394
0.805202
0.80616
0.807229
0.808293
0.809251
0.810078
0.810823
0.811599
0.812529
0.81362
0.814689
0.815544
0.816165
0.81671
0.818292
0.783907
0.785044
0.785893
0.786591
0.787412
0.788519
0.789838
0.791101
0.792064
0.792784
0.793557
0.794591
0.795838
0.797039
0.797966
0.798682
0.799461
0.800468
0.801634
0.802743
0.803641
0.804398
0.805207
0.806162
0.807226
0.808288
0.80925
0.810081
0.810824
0.811597
0.812527
0.81362
0.814691
0.815543
0.816164
0.816713
0.818296
0.783922
0.785051
0.785893
0.786585
0.787403
0.788514
0.78984
0.791108
0.792069
0.792784
0.793552
0.794585
0.795836
0.79704
0.797967
0.798683
0.799462
0.800469
0.801636
0.802744
0.803639
0.804397
0.805208
0.806164
0.807229
0.808293
0.809254
0.810081
0.810819
0.811591
0.812526
0.813628
0.8147
0.815543
0.816153
0.8167
0.818292
0.783909
0.785052
0.785895
0.786582
0.787396
0.788504
0.789831
0.791101
0.792067
0.792781
0.793546
0.794576
0.795826
0.797033
0.797964
0.798683
0.799461
0.800465
0.801629
0.80274
0.803643
0.804401
0.805206
0.806157
0.807221
0.808291
0.809259
0.810085
0.810815
0.811581
0.812519
0.813629
0.814704
0.815543
0.816148
0.816697
0.818291
0.783895
0.785036
0.785889
0.786585
0.787395
0.788498