/*--------------------------------*- C++ -*----------------------------------*\
  =========                 |
  \\      /  F ield         | OpenFOAM: The Open Source CFD Toolbox
   \\    /   O peration     | Website:  https://openfoam.org
    \\  /    A nd           | Version:  9
     \\/     M anipulation  |
\*---------------------------------------------------------------------------*/
FoamFile
{
    format      ascii;
    class       volScalarField;
    location    "1200";
    object      omega;
}
// * * * * * * * * * * * * * * * * * * * * * * * * * * * * * * * * * * * * * //

dimensions      [0 0 -1 0 0 0 0];

internalField   nonuniform List<scalar> 
82710
(
7049.3
7054.72
7060.44
7065.86
7070.84
7075.55
7080.24
7085.53
7091.29
7096.77
7101.7
7106.31
7110.79
7115.95
7121.75
7127.1
7131.87
7136.39
7140.85
7145.88
7151.34
7156.41
7161.05
7165.57
7170.14
7175
7180.05
7184.96
7189.8
7194.36
7198.6
7203.01
7207.68
7212.58
7217.74
7221.39
7227.19
7049.35
7054.76
7060.48
7065.9
7070.87
7075.55
7080.24
7085.53
7091.29
7096.74
7101.68
7106.31
7110.83
7116
7121.78
7127.1
7131.87
7136.4
7140.86
7145.9
7151.33
7156.4
7161.06
7165.59
7170.15
7175.01
7180.07
7184.98
7189.81
7194.36
7198.6
7203.02
7207.72
7212.61
7217.74
7221.38
7227.2
7049.34
7054.75
7060.53
7065.95
7070.88
7075.58
7080.22
7085.5
7091.35
7096.81
7101.72
7106.33
7110.84
7116.02
7121.8
7127.13
7131.9
7136.4
7140.86
7145.9
7151.35
7156.43
7161.09
7165.6
7170.14
7175.01
7180.08
7185
7189.83
7194.35
7198.59
7203.01
7207.73
7212.63
7217.74
7221.36
7227.19
7049.38
7054.77
7060.59
7066.01
7070.91
7075.6
7080.2
7085.5
7091.37
7096.81
7101.71
7106.35
7110.88
7116.05
7121.81
7127.13
7131.9
7136.42
7140.89
7145.91
7151.35
7156.43
7161.11
7165.62
7170.15
7175.01
7180.09
7185.02
7189.84
7194.36
7198.58
7203.04
7207.79
7212.67
7217.75
7221.37
7227.2
7049.38
7054.77
7060.62
7066.04
7070.93
7075.6
7080.19
7085.49
7091.4
7096.85
7101.74
7106.34
7110.88
7116.07
7121.83
7127.14
7131.91
7136.43
7140.9
7145.93
7151.36
7156.44
7161.14
7165.66
7170.17
7175.02
7180.1
7185.05
7189.87
7194.38
7198.59
7203.03
7207.79
7212.7
7217.76
7221.36
7227.21
7049.35
7054.76
7060.63
7066.04
7070.92
7075.6
7080.2
7085.51
7091.42
7096.84
7101.72
7106.34
7110.9
7116.09
7121.83
7127.13
7131.9
7136.44
7140.93
7145.95
7151.36
7156.44
7161.16
7165.69
7170.19
7175.02
7180.11
7185.06
7189.89
7194.38
7198.59
7203.05
7207.85
7212.74
7217.77
7221.37
7227.22
7049.29
7054.74
7060.62
7066.04
7070.92
7075.61
7080.21
7085.5
7091.41
7096.84
7101.71
7106.33
7110.91
7116.09
7121.83
7127.11
7131.89
7136.45
7140.94
7145.95
7151.34
7156.43
7161.18
7165.72
7170.21
7175.01
7180.1
7185.08
7189.92
7194.39
7198.57
7203.02
7207.85
7212.77
7217.78
7221.35
7227.21
7049.26
7054.73
7060.63
7066.02
7070.89
7075.58
7080.22
7085.53
7091.43
7096.84
7101.69
7106.31
7110.91
7116.09
7121.8
7127.07
7131.86
7136.44
7140.96
7145.97
7151.33
7156.42
7161.19
7165.74
7170.2
7175
7180.09
7185.07
7189.91
7194.38
7198.55
7203.03
7207.89
7212.8
7217.77
7221.33
7227.21
7049.25
7054.72
7060.62
7066.03
7070.9
7075.6
7080.23
7085.53
7091.43
7096.83
7101.66
7106.3
7110.92
7116.11
7121.8
7127.04
7131.83
7136.44
7140.97
7145.96
7151.3
7156.38
7161.18
7165.76
7170.21
7174.97
7180.06
7185.08
7189.94
7194.38
7198.52
7202.99
7207.88
7212.82
7217.77
7221.3
7227.18
7049.24
7054.71
7060.6
7065.99
7070.86
7075.58
7080.25
7085.56
7091.45
7096.83
7101.65
7106.28
7110.91
7116.1
7121.78
7127.01
7131.8
7136.43
7140.98
7145.97
7151.28
7156.37
7161.18
7165.76
7170.19
7174.96
7180.04
7185.05
7189.91
7194.36
7198.49
7202.98
7207.9
7212.82
7217.74
7221.28
7227.17
7049.24
7054.71
7060.54
7065.94
7070.86
7075.61
7080.27
7085.56
7091.43
7096.8
7101.6
7106.26
7110.91
7116.11
7121.77
7126.98
7131.76
7136.42
7141
7145.97
7151.26
7156.33
7161.16
7165.76
7170.2
7174.94
7180.01
7185.04
7189.92
7194.35
7198.47
7202.95
7207.89
7212.82
7217.73
7221.26
7227.15
7049.2
7054.71
7060.56
7065.93
7070.82
7075.57
7080.26
7085.57
7091.44
7096.81
7101.6
7106.23
7110.88
7116.09
7121.74
7126.96
7131.74
7136.4
7140.98
7145.96
7151.24
7156.31
7161.15
7165.75
7170.17
7174.91
7179.98
7185.01
7189.89
7194.33
7198.45
7202.94
7207.88
7212.8
7217.71
7221.24
7227.14
7049.16
7054.7
7060.57
7065.93
7070.81
7075.57
7080.25
7085.54
7091.41
7096.77
7101.56
7106.22
7110.87
7116.08
7121.73
7126.93
7131.72
7136.39
7140.98
7145.95
7151.22
7156.28
7161.12
7165.73
7170.16
7174.89
7179.96
7185
7189.88
7194.32
7198.44
7202.93
7207.86
7212.79
7217.69
7221.23
7227.13
7049.17
7054.71
7060.58
7065.93
7070.81
7075.55
7080.25
7085.55
7091.43
7096.8
7101.58
7106.21
7110.85
7116.06
7121.72
7126.93
7131.72
7136.37
7140.94
7145.92
7151.2
7156.28
7161.11
7165.71
7170.13
7174.86
7179.94
7184.98
7189.85
7194.29
7198.42
7202.91
7207.84
7212.76
7217.67
7221.22
7227.12
7049.16
7054.71
7060.57
7065.91
7070.79
7075.56
7080.27
7085.56
7091.42
7096.78
7101.56
7106.21
7110.84
7116.05
7121.71
7126.92
7131.71
7136.36
7140.93
7145.91
7151.19
7156.27
7161.1
7165.68
7170.1
7174.85
7179.94
7184.97
7189.84
7194.27
7198.41
7202.92
7207.85
7212.75
7217.65
7221.22
7227.13
7049.16
7054.71
7060.56
7065.9
7070.77
7075.54
7080.25
7085.56
7091.44
7096.79
7101.57
7106.21
7110.83
7116.03
7121.7
7126.92
7131.71
7136.34
7140.89
7145.87
7151.19
7156.26
7161.08
7165.65
7170.08
7174.84
7179.94
7184.97
7189.81
7194.25
7198.41
7202.91
7207.82
7212.72
7217.65
7221.23
7227.13
7049.19
7054.69
7060.54
7065.89
7070.77
7075.53
7080.25
7085.55
7091.42
7096.77
7101.56
7106.19
7110.81
7116.01
7121.69
7126.93
7131.73
7136.34
7140.87
7145.85
7151.19
7156.29
7161.08
7165.62
7170.04
7174.84
7179.96
7184.97
7189.78
7194.22
7198.41
7202.94
7207.84
7212.71
7217.63
7221.23
7227.14
7049.2
7054.68
7060.53
7065.87
7070.75
7075.53
7080.26
7085.57
7091.45
7096.8
7101.59
7106.22
7110.8
7116
7121.69
7126.94
7131.74
7136.34
7140.85
7145.84
7151.21
7156.3
7161.06
7165.6
7170.05
7174.86
7179.98
7184.98
7189.77
7194.22
7198.43
7202.94
7207.8
7212.68
7217.64
7221.24
7227.15
7049.23
7054.69
7060.48
7065.85
7070.77
7075.56
7080.29
7085.58
7091.45
7096.8
7101.61
7106.23
7110.8
7116
7121.71
7126.99
7131.79
7136.36
7140.85
7145.85
7151.24
7156.34
7161.08
7165.58
7170.05
7174.89
7180.02
7184.98
7189.75
7194.21
7198.46
7202.99
7207.82
7212.67
7217.63
7221.26
7227.17
7049.22
7054.72
7060.54
7065.88
7070.77
7075.56
7080.29
7085.59
7091.47
7096.83
7101.64
7106.25
7110.8
7115.99
7121.71
7127.01
7131.81
7136.37
7140.87
7145.88
7151.29
7156.37
7161.07
7165.59
7170.08
7174.92
7180.04
7185
7189.77
7194.23
7198.49
7203
7207.8
7212.66
7217.66
7221.28
7227.17
7049.22
7054.75
7060.56
7065.9
7070.78
7075.57
7080.3
7085.6
7091.48
7096.83
7101.64
7106.26
7110.79
7115.99
7121.72
7127.03
7131.84
7136.38
7140.87
7145.89
7151.31
7156.39
7161.07
7165.58
7170.1
7174.99
7180.09
7184.98
7189.73
7194.25
7198.56
7203.06
7207.8
7212.63
7217.67
7221.34
7227.21
7049.22
7054.76
7060.57
7065.9
7070.78
7075.57
7080.3
7085.59
7091.47
7096.84
7101.66
7106.26
7110.78
7115.97
7121.71
7127.04
7131.84
7136.38
7140.87
7145.9
7151.34
7156.41
7161.06
7165.57
7170.11
7175
7180.09
7185
7189.75
7194.27
7198.58
7203.06
7207.78
7212.62
7217.69
7221.35
7227.21
7049.24
7054.77
7060.57
7065.89
7070.79
7075.58
7080.31
7085.61
7091.48
7096.84
7101.67
7106.27
7110.79
7115.98
7121.72
7127.05
7131.85
7136.39
7140.88
7145.91
7151.35
7156.41
7161.05
7165.56
7170.13
7175.03
7180.11
7184.98
7189.73
7194.28
7198.61
7203.09
7207.78
7212.61
7217.7
7221.38
7227.23
7049.26
7054.77
7060.57
7065.9
7070.8
7075.6
7080.32
7085.6
7091.47
7096.84
7101.68
7106.29
7110.8
7115.98
7121.74
7127.07
7131.86
7136.39
7140.89
7145.93
7151.38
7156.43
7161.04
7165.55
7170.13
7175.03
7180.1
7184.98
7189.74
7194.3
7198.63
7203.09
7207.75
7212.59
7217.7
7221.39
7227.23
7049.29
7054.76
7060.57
7065.9
7070.79
7075.58
7080.31
7085.61
7091.48
7096.84
7101.69
7106.3
7110.81
7115.99
7121.74
7127.07
7131.87
7136.4
7140.9
7145.94
7151.38
7156.42
7161.03
7165.55
7170.14
7175.04
7180.11
7184.97
7189.72
7194.29
7198.63
7203.1
7207.75
7212.58
7217.7
7221.4
7227.24
7049.31
7054.76
7060.56
7065.91
7070.82
7075.6
7080.3
7085.58
7091.44
7096.82
7101.68
7106.3
7110.82
7116
7121.75
7127.09
7131.88
7136.41
7140.9
7145.95
7151.39
7156.43
7161.03
7165.54
7170.13
7175.04
7180.09
7184.96
7189.74
7194.31
7198.64
7203.09
7207.73
7212.56
7217.7
7221.41
7227.24
7049.33
7054.76
7060.56
7065.9
7070.82
7075.6
7080.29
7085.58
7091.45
7096.83
7101.7
7106.32
7110.82
7116
7121.75
7127.09
7131.88
7136.41
7140.91
7145.96
7151.39
7156.42
7161.02
7165.54
7170.15
7175.04
7180.08
7184.94
7189.73
7194.31
7198.64
7203.07
7207.7
7212.56
7217.71
7221.4
7227.23
7049.3
7054.72
7060.51
7065.89
7070.84
7075.61
7080.28
7085.54
7091.39
7096.79
7101.68
7106.31
7110.82
7116
7121.77
7127.1
7131.89
7136.4
7140.89
7145.94
7151.37
7156.41
7161.02
7165.54
7170.14
7175.03
7180.07
7184.94
7189.75
7194.33
7198.63
7203.05
7207.69
7212.55
7217.71
7221.4
7227.22
7049.3
7054.72
7060.5
7065.87
7070.81
7075.56
7080.24
7085.53
7091.38
7096.79
7101.68
7106.29
7110.8
7115.98
7121.75
7127.07
7131.84
7136.38
7140.88
7145.93
7151.37
7156.39
7161.01
7165.55
7170.14
7175.02
7180.05
7184.93
7189.75
7194.33
7198.62
7203.03
7207.67
7212.55
7217.72
7221.39
7227.21
7049.3
7054.72
7060.46
7065.86
7070.83
7075.56
7080.24
7085.52
7091.32
7096.74
7101.66
7106.29
7110.8
7115.99
7121.77
7127.09
7131.86
7136.37
7140.86
7145.91
7151.35
7156.39
7161.02
7165.55
7170.14
7175.03
7180.06
7184.95
7189.77
7194.35
7198.62
7203.03
7207.69
7212.56
7217.73
7221.4
7227.21
2977.06
2978.76
2980.68
2982.72
2984.58
2986.16
2987.63
2989.27
2991.2
2993.24
2995.1
2996.69
2998.21
2999.89
3001.81
3003.79
3005.62
3007.24
3008.82
3010.53
3012.39
3014.32
3016.17
3017.91
3019.54
3021.14
3022.86
3024.75
3026.73
3028.59
3030.21
3031.66
3033.32
3035.19
3037.38
3038.74
3042
2977.07
2978.77
2980.68
2982.71
2984.57
2986.16
2987.64
2989.29
2991.2
2993.23
2995.09
2996.69
2998.22
2999.9
3001.81
3003.79
3005.61
3007.25
3008.83
3010.53
3012.39
3014.31
3016.18
3017.91
3019.54
3021.14
3022.87
3024.76
3026.74
3028.59
3030.2
3031.66
3033.32
3035.19
3037.38
3038.73
3041.99
2977.06
2978.77
2980.7
2982.74
2984.58
2986.15
2987.63
2989.29
2991.22
2993.25
2995.1
2996.69
2998.22
2999.9
3001.82
3003.8
3005.62
3007.25
3008.83
3010.53
3012.39
3014.32
3016.18
3017.91
3019.54
3021.14
3022.87
3024.77
3026.75
3028.59
3030.2
3031.66
3033.32
3035.21
3037.39
3038.73
3041.98
2977.07
2978.78
2980.72
2982.76
2984.59
2986.15
2987.63
2989.29
2991.23
2993.27
2995.11
2996.69
2998.22
2999.91
3001.82
3003.8
3005.62
3007.25
3008.84
3010.54
3012.4
3014.33
3016.19
3017.92
3019.54
3021.15
3022.88
3024.79
3026.76
3028.6
3030.2
3031.66
3033.33
3035.21
3037.39
3038.72
3041.98
2977.08
2978.79
2980.73
2982.77
2984.6
2986.15
2987.63
2989.3
2991.24
2993.27
2995.11
2996.7
2998.23
2999.92
3001.83
3003.8
3005.63
3007.27
3008.85
3010.54
3012.4
3014.34
3016.2
3017.93
3019.54
3021.14
3022.88
3024.8
3026.77
3028.6
3030.19
3031.66
3033.34
3035.23
3037.4
3038.72
3041.97
2977.07
2978.8
2980.74
2982.78
2984.6
2986.14
2987.63
2989.3
2991.25
2993.28
2995.11
2996.69
2998.23
2999.92
3001.83
3003.8
3005.63
3007.27
3008.86
3010.55
3012.41
3014.34
3016.21
3017.94
3019.55
3021.14
3022.89
3024.81
3026.78
3028.61
3030.19
3031.66
3033.35
3035.24
3037.4
3038.71
3041.97
2977.07
2978.79
2980.73
2982.77
2984.6
2986.15
2987.63
2989.3
2991.24
2993.27
2995.11
2996.7
2998.24
2999.92
3001.82
3003.79
3005.63
3007.28
3008.87
3010.55
3012.4
3014.33
3016.21
3017.95
3019.55
3021.14
3022.88
3024.82
3026.8
3028.61
3030.18
3031.65
3033.35
3035.25
3037.41
3038.71
3041.96
2977.06
2978.8
2980.75
2982.79
2984.61
2986.15
2987.63
2989.31
2991.24
2993.27
2995.1
2996.69
2998.23
2999.93
3001.83
3003.79
3005.63
3007.28
3008.87
3010.55
3012.4
3014.33
3016.22
3017.95
3019.54
3021.13
3022.88
3024.83
3026.8
3028.61
3030.18
3031.65
3033.36
3035.26
3037.4
3038.7
3041.96
2977.08
2978.8
2980.74
2982.78
2984.6
2986.15
2987.64
2989.31
2991.24
2993.26
2995.09
2996.7
2998.24
2999.93
3001.82
3003.78
3005.62
3007.29
3008.89
3010.56
3012.38
3014.32
3016.21
3017.95
3019.54
3021.12
3022.88
3024.84
3026.81
3028.6
3030.16
3031.65
3033.37
3035.27
3037.4
3038.68
3041.95
2977.07
2978.81
2980.76
2982.78
2984.59
2986.14
2987.64
2989.32
2991.25
2993.25
2995.07
2996.68
2998.24
2999.94
3001.83
3003.77
3005.6
3007.28
3008.89
3010.56
3012.38
3014.32
3016.21
3017.95
3019.54
3021.12
3022.87
3024.83
3026.8
3028.59
3030.15
3031.64
3033.38
3035.28
3037.39
3038.67
3041.94
2977.05
2978.81
2980.76
2982.78
2984.59
2986.14
2987.64
2989.32
2991.24
2993.24
2995.06
2996.67
2998.24
2999.94
3001.82
3003.76
3005.59
3007.28
3008.89
3010.56
3012.37
3014.3
3016.2
3017.95
3019.54
3021.11
3022.87
3024.83
3026.8
3028.59
3030.15
3031.64
3033.38
3035.27
3037.38
3038.66
3041.94
2977.05
2978.8
2980.74
2982.76
2984.57
2986.13
2987.64
2989.32
2991.24
2993.23
2995.05
2996.66
2998.24
2999.94
3001.81
3003.74
3005.58
3007.27
3008.89
3010.56
3012.37
3014.3
3016.2
3017.95
3019.54
3021.11
3022.86
3024.82
3026.79
3028.58
3030.15
3031.64
3033.38
3035.27
3037.37
3038.65
3041.93
2977.06
2978.81
2980.74
2982.75
2984.57
2986.13
2987.63
2989.31
2991.23
2993.22
2995.04
2996.66
2998.23
2999.94
3001.81
3003.74
3005.57
3007.27
3008.89
3010.56
3012.36
3014.29
3016.19
3017.95
3019.54
3021.1
3022.86
3024.82
3026.79
3028.58
3030.14
3031.64
3033.38
3035.26
3037.36
3038.65
3041.94
2977.07
2978.81
2980.74
2982.75
2984.56
2986.12
2987.63
2989.31
2991.23
2993.22
2995.04
2996.65
2998.22
2999.93
3001.8
3003.74
3005.57
3007.26
3008.88
3010.55
3012.36
3014.29
3016.19
3017.95
3019.53
3021.1
3022.85
3024.81
3026.78
3028.57
3030.15
3031.65
3033.38
3035.26
3037.36
3038.65
3041.94
2977.07
2978.81
2980.74
2982.74
2984.56
2986.12
2987.63
2989.31
2991.22
2993.21
2995.03
2996.64
2998.22
2999.93
3001.8
3003.73
3005.57
3007.26
3008.87
3010.55
3012.36
3014.29
3016.19
3017.94
3019.52
3021.1
3022.86
3024.81
3026.78
3028.57
3030.15
3031.66
3033.38
3035.25
3037.35
3038.65
3041.95
2977.05
2978.8
2980.74
2982.75
2984.56
2986.12
2987.63
2989.31
2991.23
2993.22
2995.04
2996.64
2998.21
2999.91
3001.8
3003.74
3005.58
3007.26
3008.86
3010.53
3012.35
3014.29
3016.19
3017.93
3019.52
3021.1
3022.85
3024.8
3026.76
3028.56
3030.15
3031.66
3033.38
3035.23
3037.34
3038.66
3041.95
2977.06
2978.8
2980.74
2982.74
2984.55
2986.12
2987.63
2989.31
2991.23
2993.21
2995.03
2996.64
2998.21
2999.91
3001.8
3003.75
3005.58
3007.25
3008.85
3010.53
3012.36
3014.3
3016.19
3017.92
3019.51
3021.1
3022.86
3024.8
3026.75
3028.55
3030.15
3031.67
3033.38
3035.22
3037.33
3038.65
3041.95
2977.05
2978.8
2980.74
2982.75
2984.57
2986.13
2987.63
2989.31
2991.23
2993.23
2995.05
2996.65
2998.2
2999.9
3001.8
3003.76
3005.59
3007.25
3008.84
3010.51
3012.36
3014.3
3016.19
3017.91
3019.5
3021.1
3022.85
3024.78
3026.74
3028.54
3030.15
3031.67
3033.37
3035.21
3037.33
3038.66
3041.96
2977.05
2978.82
2980.75
2982.76
2984.57
2986.13
2987.63
2989.31
2991.23
2993.23
2995.05
2996.65
2998.2
2999.9
3001.8
3003.77
3005.6
3007.24
3008.83
3010.52
3012.37
3014.31
3016.17
3017.89
3019.49
3021.11
3022.87
3024.78
3026.72
3028.53
3030.15
3031.67
3033.37
3035.2
3037.32
3038.66
3041.95
2977.04
2978.8
2980.74
2982.76
2984.57
2986.13
2987.63
2989.3
2991.23
2993.23
2995.06
2996.65
2998.2
2999.89
3001.8
3003.78
3005.6
3007.24
3008.82
3010.51
3012.37
3014.31
3016.17
3017.89
3019.5
3021.11
3022.86
3024.77
3026.71
3028.53
3030.16
3031.67
3033.35
3035.19
3037.33
3038.68
3041.96
2977.07
2978.82
2980.75
2982.75
2984.57
2986.13
2987.63
2989.3
2991.22
2993.23
2995.06
2996.65
2998.2
2999.9
3001.81
3003.78
3005.6
3007.24
3008.83
3010.53
3012.38
3014.31
3016.16
3017.89
3019.51
3021.13
3022.87
3024.76
3026.7
3028.55
3030.18
3031.68
3033.34
3035.18
3037.33
3038.69
3041.96
2977.07
2978.82
2980.75
2982.75
2984.57
2986.13
2987.63
2989.3
2991.22
2993.23
2995.06
2996.66
2998.2
2999.9
3001.81
3003.79
3005.61
3007.24
3008.83
3010.53
3012.39
3014.31
3016.17
3017.89
3019.52
3021.15
3022.87
3024.75
3026.7
3028.56
3030.19
3031.68
3033.34
3035.17
3037.34
3038.71
3041.98
2977.09
2978.83
2980.76
2982.75
2984.57
2986.13
2987.64
2989.31
2991.23
2993.23
2995.06
2996.66
2998.21
2999.91
3001.81
3003.78
3005.61
3007.24
3008.83
3010.54
3012.4
3014.32
3016.16
3017.89
3019.53
3021.16
3022.89
3024.76
3026.7
3028.56
3030.21
3031.7
3033.34
3035.17
3037.34
3038.71
3041.98
2977.08
2978.82
2980.75
2982.75
2984.57
2986.14
2987.65
2989.32
2991.23
2993.24
2995.07
2996.67
2998.21
2999.91
3001.82
3003.79
3005.61
3007.25
3008.84
3010.54
3012.4
3014.32
3016.17
3017.9
3019.55
3021.17
3022.89
3024.75
3026.7
3028.58
3030.22
3031.7
3033.34
3035.17
3037.35
3038.73
3042
2977.1
2978.83
2980.75
2982.75
2984.57
2986.15
2987.66
2989.32
2991.24
2993.24
2995.07
2996.68
2998.22
2999.92
3001.83
3003.79
3005.61
3007.24
3008.84
3010.55
3012.41
3014.32
3016.16
3017.9
3019.55
3021.18
3022.9
3024.75
3026.7
3028.57
3030.23
3031.72
3033.34
3035.16
3037.35
3038.73
3042.01
2977.09
2978.82
2980.74
2982.75
2984.57
2986.15
2987.66
2989.33
2991.24
2993.24
2995.08
2996.68
2998.23
2999.92
3001.83
3003.79
3005.61
3007.24
3008.84
3010.55
3012.4
3014.32
3016.16
3017.9
3019.55
3021.18
3022.89
3024.75
3026.7
3028.58
3030.24
3031.71
3033.34
3035.16
3037.35
3038.74
3042.02
2977.09
2978.81
2980.73
2982.74
2984.57
2986.15
2987.65
2989.32
2991.23
2993.24
2995.08
2996.68
2998.23
2999.92
3001.82
3003.79
3005.6
3007.24
3008.84
3010.55
3012.4
3014.31
3016.15
3017.9
3019.55
3021.18
3022.89
3024.75
3026.7
3028.58
3030.23
3031.71
3033.34
3035.17
3037.35
3038.74
3042.02
2977.07
2978.79
2980.71
2982.73
2984.57
2986.15
2987.65
2989.31
2991.22
2993.23
2995.07
2996.68
2998.22
2999.92
3001.82
3003.78
3005.6
3007.23
3008.83
3010.54
3012.4
3014.3
3016.15
3017.9
3019.55
3021.17
3022.88
3024.74
3026.7
3028.58
3030.22
3031.7
3033.33
3035.17
3037.36
3038.74
3042.01
2977.06
2978.78
2980.7
2982.72
2984.56
2986.15
2987.64
2989.3
2991.21
2993.23
2995.08
2996.68
2998.22
2999.91
3001.81
3003.78
3005.6
3007.24
3008.83
3010.54
3012.39
3014.3
3016.15
3017.9
3019.55
3021.16
3022.87
3024.74
3026.71
3028.58
3030.22
3031.69
3033.32
3035.17
3037.36
3038.74
3042.01
2977.07
2978.78
2980.69
2982.71
2984.56
2986.15
2987.65
2989.3
2991.2
2993.22
2995.07
2996.68
2998.22
2999.91
3001.81
3003.78
3005.6
3007.24
3008.84
3010.54
3012.39
3014.3
3016.16
3017.9
3019.54
3021.16
3022.87
3024.75
3026.72
3028.59
3030.21
3031.67
3033.32
3035.18
3037.37
3038.74
3042.01
1717.04
1717.87
1718.8
1719.69
1720.44
1721.08
1721.76
1722.59
1723.55
1724.48
1725.26
1725.95
1726.68
1727.55
1728.51
1729.43
1730.24
1730.96
1731.73
1732.6
1733.56
1734.52
1735.4
1736.19
1736.95
1737.77
1738.7
1739.72
1740.7
1741.54
1742.27
1743.03
1744
1745.05
1746.15
1746.75
1748.31
1717.05
1717.88
1718.8
1719.69
1720.43
1721.08
1721.77
1722.6
1723.55
1724.48
1725.26
1725.96
1726.69
1727.55
1728.5
1729.43
1730.24
1730.97
1731.73
1732.6
1733.56
1734.52
1735.4
1736.19
1736.95
1737.77
1738.71
1739.72
1740.7
1741.54
1742.26
1743.03
1744
1745.04
1746.14
1746.74
1748.3
1717.05
1717.88
1718.81
1719.7
1720.44
1721.07
1721.76
1722.6
1723.56
1724.48
1725.26
1725.95
1726.69
1727.55
1728.51
1729.43
1730.24
1730.97
1731.73
1732.6
1733.56
1734.52
1735.4
1736.19
1736.95
1737.77
1738.71
1739.73
1740.7
1741.53
1742.26
1743.03
1744.01
1745.05
1746.14
1746.74
1748.3
1717.05
1717.89
1718.82
1719.71
1720.44
1721.07
1721.76
1722.61
1723.57
1724.49
1725.26
1725.95
1726.69
1727.56
1728.52
1729.44
1730.24
1730.97
1731.73
1732.61
1733.57
1734.53
1735.4
1736.19
1736.95
1737.77
1738.72
1739.74
1740.7
1741.53
1742.26
1743.03
1744.01
1745.05
1746.14
1746.73
1748.29
1717.06
1717.9
1718.83
1719.72
1720.44
1721.07
1721.76
1722.61
1723.57
1724.49
1725.26
1725.96
1726.69
1727.56
1728.52
1729.44
1730.24
1730.98
1731.74
1732.61
1733.57
1734.53
1735.41
1736.19
1736.95
1737.77
1738.73
1739.74
1740.7
1741.53
1742.25
1743.04
1744.02
1745.06
1746.14
1746.73
1748.29
1717.06
1717.9
1718.84
1719.72
1720.44
1721.07
1721.76
1722.62
1723.58
1724.49
1725.26
1725.95
1726.7
1727.56
1728.52
1729.44
1730.25
1730.98
1731.74
1732.61
1733.57
1734.53
1735.41
1736.19
1736.95
1737.77
1738.73
1739.75
1740.71
1741.53
1742.25
1743.04
1744.02
1745.06
1746.14
1746.72
1748.29
1717.06
1717.9
1718.83
1719.72
1720.44
1721.07
1721.77
1722.61
1723.57
1724.49
1725.27
1725.96
1726.7
1727.56
1728.52
1729.44
1730.25
1730.99
1731.75
1732.61
1733.57
1734.53
1735.41
1736.19
1736.95
1737.77
1738.73
1739.75
1740.71
1741.52
1742.25
1743.04
1744.03
1745.07
1746.14
1746.72
1748.29
1717.06
1717.9
1718.85
1719.72
1720.44
1721.07
1721.77
1722.62
1723.58
1724.49
1725.26
1725.96
1726.7
1727.57
1728.52
1729.44
1730.25
1730.99
1731.75
1732.61
1733.57
1734.54
1735.41
1736.19
1736.94
1737.77
1738.74
1739.76
1740.71
1741.52
1742.25
1743.04
1744.04
1745.07
1746.13
1746.72
1748.29
1717.06
1717.9
1718.84
1719.72
1720.44
1721.07
1721.77
1722.62
1723.57
1724.48
1725.26
1725.97
1726.71
1727.57
1728.51
1729.43
1730.25
1731
1731.76
1732.61
1733.56
1734.53
1735.41
1736.2
1736.94
1737.77
1738.74
1739.76
1740.71
1741.51
1742.24
1743.04
1744.05
1745.07
1746.13
1746.71
1748.29
1717.07
1717.91
1718.84
1719.72
1720.43
1721.07
1721.77
1722.62
1723.57
1724.48
1725.25
1725.96
1726.71
1727.57
1728.51
1729.42
1730.24
1730.99
1731.76
1732.61
1733.56
1734.53
1735.41
1736.19
1736.94
1737.77
1738.74
1739.76
1740.71
1741.51
1742.24
1743.04
1744.05
1745.07
1746.12
1746.7
1748.29
1717.09
1717.93
1718.84
1719.71
1720.43
1721.07
1721.78
1722.62
1723.57
1724.47
1725.25
1725.96
1726.71
1727.57
1728.5
1729.41
1730.24
1731
1731.76
1732.61
1733.55
1734.52
1735.41
1736.2
1736.94
1737.77
1738.73
1739.76
1740.7
1741.51
1742.24
1743.04
1744.04
1745.07
1746.11
1746.7
1748.29
1717.07
1717.91
1718.83
1719.7
1720.42
1721.07
1721.78
1722.62
1723.56
1724.47
1725.24
1725.96
1726.71
1727.57
1728.5
1729.41
1730.23
1730.99
1731.76
1732.61
1733.55
1734.51
1735.4
1736.19
1736.94
1737.76
1738.73
1739.75
1740.7
1741.51
1742.24
1743.05
1744.04
1745.06
1746.11
1746.7
1748.28
1717.07
1717.91
1718.82
1719.69
1720.42
1721.07
1721.78
1722.62
1723.56
1724.46
1725.24
1725.95
1726.71
1727.57
1728.5
1729.4
1730.23
1730.99
1731.76
1732.61
1733.55
1734.51
1735.4
1736.19
1736.94
1737.76
1738.72
1739.75
1740.7
1741.51
1742.24
1743.04
1744.04
1745.06
1746.11
1746.7
1748.29
1717.07
1717.91
1718.82
1719.69
1720.41
1721.07
1721.78
1722.62
1723.56
1724.46
1725.24
1725.95
1726.71
1727.56
1728.5
1729.41
1730.23
1730.99
1731.76
1732.6
1733.54
1734.51
1735.4
1736.19
1736.94
1737.76
1738.72
1739.74
1740.7
1741.51
1742.25
1743.05
1744.04
1745.05
1746.1
1746.7
1748.29
1717.07
1717.91
1718.82
1719.69
1720.42
1721.07
1721.78
1722.62
1723.56
1724.46
1725.23
1725.95
1726.7
1727.56
1728.49
1729.4
1730.23
1730.99
1731.76
1732.6
1733.55
1734.51
1735.4
1736.19
1736.94
1737.76
1738.72
1739.74
1740.7
1741.51
1742.25
1743.05
1744.03
1745.04
1746.1
1746.71
1748.29
1717.06
1717.91
1718.82
1719.69
1720.41
1721.07
1721.77
1722.62
1723.56
1724.46
1725.23
1725.94
1726.7
1727.56
1728.49
1729.41
1730.23
1730.98
1731.75
1732.6
1733.55
1734.52
1735.4
1736.19
1736.93
1737.75
1738.71
1739.74
1740.69
1741.51
1742.25
1743.05
1744.03
1745.04
1746.1
1746.72
1748.3
1717.06
1717.9
1718.82
1719.69
1720.41
1721.07
1721.78
1722.62
1723.56
1724.46
1725.23
1725.94
1726.7
1727.56
1728.5
1729.41
1730.23
1730.98
1731.74
1732.6
1733.55
1734.52
1735.39
1736.18
1736.93
1737.76
1738.72
1739.74
1740.68
1741.51
1742.25
1743.05
1744.03
1745.03
1746.1
1746.72
1748.3
1717.06
1717.9
1718.82
1719.69
1720.42
1721.07
1721.77
1722.62
1723.56
1724.47
1725.24
1725.94
1726.69
1727.55
1728.5
1729.42
1730.23
1730.97
1731.73
1732.59
1733.55
1734.52
1735.39
1736.18
1736.93
1737.75
1738.71
1739.73
1740.68
1741.51
1742.25
1743.05
1744.02
1745.03
1746.1
1746.72
1748.3
1717.09
1717.93
1718.83
1719.7
1720.41
1721.06
1721.77
1722.62
1723.57
1724.47
1725.24
1725.94
1726.69
1727.55
1728.5
1729.42
1730.23
1730.97
1731.73
1732.6
1733.56
1734.51
1735.38
1736.16
1736.92
1737.76
1738.72
1739.72
1740.67
1741.5
1742.25
1743.05
1744.01
1745.03
1746.1
1746.72
1748.29
1717.06
1717.91
1718.83
1719.7
1720.42
1721.06
1721.77
1722.62
1723.57
1724.47
1725.24
1725.94
1726.68
1727.55
1728.5
1729.42
1730.23
1730.96
1731.73
1732.59
1733.55
1734.51
1735.38
1736.17
1736.93
1737.76
1738.71
1739.71
1740.67
1741.5
1742.26
1743.04
1744.01
1745.03
1746.11
1746.73
1748.29
1717.07
1717.92
1718.83
1719.69
1720.41
1721.06
1721.77
1722.62
1723.57
1724.47
1725.24
1725.94
1726.69
1727.55
1728.5
1729.42
1730.23
1730.97
1731.73
1732.6
1733.56
1734.51
1735.38
1736.17
1736.94
1737.76
1738.71
1739.71
1740.67
1741.51
1742.26
1743.04
1744
1745.02
1746.12
1746.73
1748.29
1717.07
1717.91
1718.83
1719.69
1720.42
1721.07
1721.77
1722.62
1723.57
1724.48
1725.25
1725.94
1726.69
1727.55
1728.5
1729.43
1730.23
1730.97
1731.73
1732.6
1733.56
1734.51
1735.38
1736.18
1736.95
1737.77
1738.71
1739.71
1740.67
1741.52
1742.27
1743.04
1743.99
1745.02
1746.13
1746.74
1748.29
1717.08
1717.92
1718.83
1719.69
1720.41
1721.07
1721.78
1722.62
1723.57
1724.47
1725.25
1725.95
1726.69
1727.55
1728.5
1729.43
1730.23
1730.97
1731.74
1732.61
1733.57
1734.51
1735.38
1736.18
1736.96
1737.78
1738.71
1739.71
1740.67
1741.53
1742.28
1743.05
1743.99
1745.02
1746.13
1746.74
1748.3
1717.08
1717.92
1718.83
1719.69
1720.42
1721.07
1721.78
1722.62
1723.57
1724.48
1725.25
1725.95
1726.69
1727.55
1728.51
1729.43
1730.23
1730.97
1731.74
1732.61
1733.56
1734.52
1735.39
1736.19
1736.96
1737.78
1738.71
1739.71
1740.68
1741.54
1742.29
1743.05
1743.99
1745.02
1746.13
1746.75
1748.3
1717.08
1717.92
1718.83
1719.69
1720.42
1721.08
1721.79
1722.63
1723.57
1724.48
1725.25
1725.96
1726.7
1727.56
1728.51
1729.43
1730.23
1730.97
1731.75
1732.62
1733.57
1734.52
1735.38
1736.19
1736.97
1737.79
1738.71
1739.71
1740.68
1741.54
1742.29
1743.05
1743.99
1745.02
1746.13
1746.76
1748.31
1717.07
1717.91
1718.82
1719.69
1720.42
1721.08
1721.79
1722.63
1723.57
1724.48
1725.25
1725.96
1726.7
1727.56
1728.51
1729.43
1730.23
1730.97
1731.74
1732.61
1733.56
1734.51
1735.39
1736.19
1736.97
1737.79
1738.71
1739.71
1740.68
1741.55
1742.3
1743.05
1743.99
1745.02
1746.14
1746.76
1748.31
1717.07
1717.9
1718.82
1719.69
1720.43
1721.08
1721.78
1722.62
1723.56
1724.47
1725.25
1725.95
1726.7
1727.56
1728.5
1729.42
1730.23
1730.97
1731.74
1732.61
1733.56
1734.51
1735.38
1736.19
1736.97
1737.79
1738.71
1739.71
1740.68
1741.54
1742.29
1743.05
1743.99
1745.02
1746.13
1746.76
1748.31
1717.06
1717.89
1718.81
1719.69
1720.43
1721.08
1721.78
1722.61
1723.56
1724.47
1725.25
1725.95
1726.69
1727.55
1728.5
1729.42
1730.22
1730.96
1731.74
1732.61
1733.56
1734.51
1735.38
1736.19
1736.96
1737.78
1738.7
1739.71
1740.69
1741.54
1742.29
1743.04
1743.99
1745.03
1746.14
1746.76
1748.31
1717.05
1717.88
1718.8
1719.69
1720.43
1721.08
1721.77
1722.61
1723.55
1724.47
1725.25
1725.95
1726.69
1727.55
1728.5
1729.42
1730.23
1730.97
1731.74
1732.6
1733.55
1734.51
1735.39
1736.19
1736.96
1737.77
1738.7
1739.71
1740.69
1741.54
1742.28
1743.04
1743.99
1745.03
1746.14
1746.76
1748.31
1717.05
1717.88
1718.8
1719.68
1720.43
1721.08
1721.78
1722.6
1723.55
1724.47
1725.25
1725.95
1726.69
1727.55
1728.5
1729.42
1730.23
1730.97
1731.74
1732.61
1733.56
1734.51
1735.39
1736.19
1736.95
1737.77
1738.7
1739.71
1740.69
1741.54
1742.28
1743.03
1743.99
1745.04
1746.14
1746.76
1748.31
1177.31
1177.65
1178.03
1178.38
1178.65
1178.88
1179.16
1179.53
1179.96
1180.37
1180.69
1180.97
1181.3
1181.71
1182.16
1182.59
1182.94
1183.27
1183.63
1184.07
1184.55
1185.02
1185.44
1185.81
1186.19
1186.62
1187.13
1187.66
1188.15
1188.56
1188.94
1189.36
1189.91
1190.48
1191.06
1191.35
1192.22
1177.31
1177.65
1178.03
1178.38
1178.65
1178.88
1179.16
1179.53
1179.96
1180.37
1180.69
1180.98
1181.3
1181.71
1182.16
1182.58
1182.94
1183.27
1183.63
1184.07
1184.55
1185.02
1185.44
1185.81
1186.19
1186.62
1187.13
1187.66
1188.15
1188.56
1188.93
1189.36
1189.91
1190.48
1191.06
1191.35
1192.22
1177.32
1177.65
1178.04
1178.38
1178.65
1178.88
1179.16
1179.53
1179.96
1180.37
1180.69
1180.97
1181.3
1181.71
1182.16
1182.59
1182.94
1183.27
1183.63
1184.07
1184.55
1185.03
1185.44
1185.81
1186.19
1186.63
1187.13
1187.66
1188.15
1188.55
1188.93
1189.36
1189.91
1190.48
1191.06
1191.34
1192.22
1177.32
1177.66
1178.04
1178.39
1178.65
1178.87
1179.16
1179.54
1179.97
1180.37
1180.69
1180.97
1181.3
1181.71
1182.16
1182.59
1182.95
1183.27
1183.63
1184.07
1184.56
1185.03
1185.44
1185.82
1186.19
1186.63
1187.14
1187.67
1188.15
1188.55
1188.93
1189.36
1189.91
1190.48
1191.05
1191.34
1192.21
1177.32
1177.66
1178.05
1178.39
1178.65
1178.87
1179.16
1179.54
1179.97
1180.37
1180.69
1180.98
1181.31
1181.71
1182.17
1182.59
1182.95
1183.27
1183.64
1184.07
1184.56
1185.03
1185.45
1185.82
1186.19
1186.63
1187.14
1187.67
1188.15
1188.55
1188.93
1189.36
1189.92
1190.49
1191.05
1191.33
1192.21
1177.33
1177.67
1178.05
1178.4
1178.65
1178.87
1179.16
1179.54
1179.98
1180.38
1180.69
1180.98
1181.31
1181.72
1182.17
1182.59
1182.95
1183.28
1183.64
1184.07
1184.56
1185.03
1185.45
1185.82
1186.19
1186.63
1187.14
1187.67
1188.15
1188.55
1188.93
1189.36
1189.92
1190.49
1191.05
1191.33
1192.21
1177.33
1177.67
1178.05
1178.39
1178.65
1178.88
1179.16
1179.54
1179.97
1180.37
1180.7
1180.98
1181.31
1181.72
1182.16
1182.59
1182.95
1183.28
1183.64
1184.07
1184.55
1185.03
1185.45
1185.82
1186.19
1186.63
1187.14
1187.68
1188.15
1188.55
1188.92
1189.36
1189.92
1190.49
1191.05
1191.33
1192.21
1177.33
1177.67
1178.06
1178.4
1178.65
1178.88
1179.17
1179.54
1179.97
1180.37
1180.69
1180.98
1181.31
1181.72
1182.17
1182.59
1182.95
1183.28
1183.64
1184.07
1184.55
1185.03
1185.45
1185.82
1186.19
1186.63
1187.15
1187.68
1188.15
1188.55
1188.92
1189.36
1189.92
1190.49
1191.05
1191.33
1192.21
1177.33
1177.67
1178.05
1178.39
1178.65
1178.88
1179.17
1179.54
1179.97
1180.37
1180.69
1180.99
1181.32
1181.72
1182.16
1182.59
1182.95
1183.29
1183.65
1184.07
1184.55
1185.03
1185.45
1185.82
1186.19
1186.63
1187.15
1187.68
1188.15
1188.54
1188.92
1189.37
1189.93
1190.49
1191.05
1191.33
1192.21
1177.33
1177.68
1178.05
1178.39
1178.65
1178.88
1179.17
1179.55
1179.97
1180.37
1180.69
1180.98
1181.32
1181.72
1182.16
1182.58
1182.95
1183.29
1183.65
1184.07
1184.55
1185.02
1185.44
1185.82
1186.19
1186.63
1187.15
1187.68
1188.15
1188.54
1188.92
1189.36
1189.93
1190.49
1191.04
1191.32
1192.21
1177.35
1177.68
1178.05
1178.39
1178.65
1178.88
1179.17
1179.54
1179.97
1180.36
1180.69
1180.98
1181.32
1181.72
1182.16
1182.58
1182.95
1183.29