/*--------------------------------*- C++ -*----------------------------------*\
  =========                 |
  \\      /  F ield         | OpenFOAM: The Open Source CFD Toolbox
   \\    /   O peration     | Website:  https://openfoam.org
    \\  /    A nd           | Version:  9
     \\/     M anipulation  |
\*---------------------------------------------------------------------------*/
FoamFile
{
    format      ascii;
    class       surfaceScalarField;
    location    "1200";
    object      phi;
}
// * * * * * * * * * * * * * * * * * * * * * * * * * * * * * * * * * * * * * //

dimensions      [0 3 -1 0 0 0 0];

internalField   nonuniform List<scalar> 
242043
(
5.08136e-05
8.21582e-10
-4.07612e-08
5.08581e-05
-5.85857e-11
-4.29337e-08
5.09074e-05
-1.02267e-09
-4.90739e-08
5.09605e-05
-1.1616e-09
-5.27084e-08
5.10095e-05
-3.88758e-10
-5.11044e-08
5.10518e-05
5.73598e-10
-4.40075e-08
5.10914e-05
8.61414e-10
-3.75553e-08
5.11324e-05
2.66665e-10
-3.97925e-08
5.11807e-05
-3.91911e-10
-4.79997e-08
5.12355e-05
-3.94614e-10
-5.30396e-08
5.12843e-05
7.43774e-11
-5.14742e-08
5.1325e-05
7.09365e-10
-4.32065e-08
5.13636e-05
9.02137e-10
-3.55181e-08
5.14042e-05
4.28322e-10
-3.90467e-08
5.14525e-05
2.88074e-12
-4.85589e-08
5.15059e-05
-4.21492e-10
-5.26429e-08
5.15531e-05
-7.67606e-10
-4.95861e-08
5.15927e-05
-6.20707e-10
-4.15786e-08
5.1631e-05
9.3825e-12
-3.58768e-08
5.1672e-05
4.40318e-10
-3.98981e-08
5.17188e-05
5.79424e-11
-4.73033e-08
5.17683e-05
-7.45794e-10
-4.88518e-08
5.18124e-05
-1.24328e-09
-4.5256e-08
5.18519e-05
-4.96892e-10
-4.07442e-08
5.18914e-05
9.27077e-10
-3.89697e-08
5.1933e-05
1.30262e-09
-4.14278e-08
5.19772e-05
1.09874e-11
-4.38081e-08
5.20223e-05
-1.25897e-09
-4.42395e-08
5.20659e-05
-9.50528e-10
-4.48342e-08
5.21082e-05
9.51066e-10
-4.38436e-08
5.21475e-05
1.86999e-09
-4.01752e-08
5.21846e-05
1.05865e-09
-3.7558e-08
5.22236e-05
-8.98247e-10
-3.67189e-08
5.22681e-05
-1.7346e-09
-4.27742e-08
5.23126e-05
-5.16739e-10
-4.59902e-08
5.23546e-05
7.12684e-10
-4.32122e-08
3.28543e-10
-2.84992e-08
5.0814e-05
1.02315e-09
-4.13095e-08
5.08583e-05
-1.49046e-10
-4.35869e-08
5.09075e-05
-1.18958e-09
-4.96664e-08
5.09607e-05
-1.65428e-09
-5.25546e-08
5.10097e-05
-1.95883e-10
-5.03327e-08
5.10519e-05
1.10065e-09
-4.33765e-08
5.10914e-05
9.35336e-10
-3.76333e-08
5.11324e-05
1.83818e-10
-4.03622e-08
5.11806e-05
-3.77768e-10
-4.83684e-08
5.12352e-05
-6.20544e-10
-5.26676e-08
5.12842e-05
1.09122e-10
-5.08884e-08
5.13252e-05
7.24398e-10
-4.29751e-08
5.1364e-05
8.41558e-10
-3.60664e-08
5.14045e-05
2.89906e-10
-3.96931e-08
5.14526e-05
-1.53596e-10
-4.87179e-08
5.15058e-05
-3.67955e-10
-5.23104e-08
5.15531e-05
-5.96069e-10
-4.92293e-08
5.1593e-05
-4.01003e-10
-4.15837e-08
5.16314e-05
2.60827e-10
-3.61115e-08
5.16721e-05
5.88969e-10
-4.00054e-08
5.17186e-05
5.48678e-11
-4.71312e-08
5.17681e-05
-8.69707e-10
-4.87341e-08
5.18125e-05
-1.3452e-09
-4.53868e-08
5.18521e-05
-4.5032e-10
-4.08444e-08
5.18917e-05
9.67792e-10
-3.8887e-08
5.1933e-05
1.22348e-09
-4.12722e-08
5.19771e-05
-2.50694e-10
-4.38578e-08
5.20223e-05
-1.34966e-09
-4.44412e-08
5.2066e-05
-7.65296e-10
-4.49048e-08
5.21084e-05
1.26736e-09
-4.34988e-08
5.21476e-05
1.98879e-09
-3.97839e-08
5.21847e-05
6.63022e-10
-3.75756e-08
5.22237e-05
-1.2609e-09
-3.71768e-08
5.22682e-05
-1.75397e-09
-4.31065e-08
5.23127e-05
-1.45763e-10
-4.59141e-08
5.23546e-05
9.17725e-10
-4.29536e-08
3.46198e-10
-2.84661e-08
5.08138e-05
9.13515e-10
-4.08651e-08
5.08582e-05
-5.00922e-10
-4.33597e-08
5.09079e-05
-1.41711e-09
-5.02555e-08
5.09613e-05
-1.58762e-09
-5.31576e-08
5.10101e-05
6.05552e-11
-5.0553e-08
5.10518e-05
1.29278e-09
-4.3192e-08
5.10912e-05
8.9351e-10
-3.67553e-08
5.11324e-05
-1.02875e-10
-3.99866e-08
5.1181e-05
-6.31854e-10
-4.87509e-08
5.12357e-05
-5.40639e-10
-5.3228e-08
5.12845e-05
4.7024e-10
-5.11155e-08
5.13253e-05
8.9854e-10
-4.28787e-08
5.1364e-05
6.0458e-10
-3.58155e-08
5.14046e-05
-1.44169e-11
-3.94781e-08
5.14528e-05
-2.24885e-10
-4.88142e-08
5.1506e-05
-1.5131e-10
-5.26261e-08
5.15533e-05
-2.57821e-10
-4.94017e-08
5.15931e-05
-2.83768e-10
-4.1441e-08
5.16314e-05
1.41725e-10
-3.57587e-08
5.16722e-05
5.93809e-10
-3.97624e-08
5.17188e-05
2.1446e-10
-4.72352e-08
5.17682e-05
-7.27592e-10
-4.91229e-08
5.18126e-05
-1.22038e-09
-4.57494e-08
5.18523e-05
-5.49285e-10
-4.07554e-08
5.18917e-05
8.11214e-10
-3.85932e-08
5.1933e-05
1.16337e-09
-4.11071e-08
5.19771e-05
-2.90635e-10
-4.40922e-08
5.20225e-05
-1.37854e-09
-4.47909e-08
5.20662e-05
-6.38171e-10
-4.49605e-08
5.21084e-05
1.40399e-09
-4.31344e-08
5.21475e-05
2.01941e-09
-3.93977e-08
5.21844e-05
5.13609e-10
-3.75526e-08
5.22236e-05
-1.40849e-09
-3.75061e-08
5.22684e-05
-1.81196e-09
-4.34185e-08
5.23128e-05
8.45498e-11
-4.57425e-08
5.23545e-05
1.11405e-09
-4.26161e-08
3.6317e-10
-2.83535e-08
5.08141e-05
5.61333e-10
-4.05041e-08
5.08584e-05
-7.0581e-10
-4.34151e-08
5.09082e-05
-1.28257e-09
-5.08823e-08
5.09619e-05
-1.07963e-09
-5.36501e-08
5.10105e-05
2.83129e-10
-5.04875e-08
5.10518e-05
1.1098e-09
-4.26502e-08
5.10912e-05
5.02395e-10
-3.59821e-08
5.11324e-05
-4.48959e-10
-3.99341e-08
5.11811e-05
-6.17065e-10
-4.92534e-08
5.12357e-05
3.74922e-12
-5.35782e-08
5.12846e-05
7.4716e-10
-5.0995e-08
5.13256e-05
6.47569e-10
-4.26873e-08
5.13642e-05
-5.51588e-12
-3.57175e-08
5.14048e-05
-4.36025e-10
-3.96309e-08
5.14529e-05
-4.1487e-11
-4.91295e-08
5.1506e-05
5.09234e-10
-5.28079e-08
5.15534e-05
1.98392e-10
-4.93723e-08
5.15934e-05
-4.28997e-10
-4.12158e-08
5.16317e-05
-2.42075e-10
-3.54618e-08
5.16723e-05
6.01184e-10
-3.96343e-08
5.17187e-05
8.23935e-10
-4.74114e-08
5.17682e-05
-9.43439e-11
-4.94691e-08
5.18127e-05
-1.12671e-09
-4.59222e-08
5.18526e-05
-1.05145e-09
-4.05241e-08
5.18919e-05
3.61141e-10
-3.82015e-08
5.1933e-05
1.13817e-09
-4.09727e-08
5.19771e-05
1.08068e-10
-4.44004e-08
5.20226e-05
-1.13565e-09
-4.5077e-08
5.20665e-05
-7.60409e-10
-4.48485e-08
5.21086e-05
1.19259e-09
-4.26653e-08
5.21476e-05
1.93277e-09
-3.90284e-08
5.21846e-05
4.67674e-10
-3.78471e-08
5.22239e-05
-1.49059e-09
-3.80283e-08
5.22687e-05
-1.87114e-09
-4.36293e-08
5.23131e-05
6.96029e-11
-4.55134e-08
5.23545e-05
1.13265e-09
-4.23587e-08
3.84465e-10
-2.83646e-08
5.08141e-05
1.33107e-10
-4.05037e-08
5.08584e-05
-5.69652e-10
-4.36558e-08
5.09084e-05
-9.861e-10
-5.12394e-08
5.09623e-05
-8.08325e-10
-5.37025e-08
5.10107e-05
1.85292e-10
-5.01857e-08
5.10517e-05
7.7755e-10
-4.2382e-08
5.10911e-05
1.85167e-10
-3.59021e-08
5.11324e-05
-5.49672e-10
-4.0062e-08
5.11814e-05
-5.62902e-10
-4.94931e-08
5.12361e-05
2.15224e-10
-5.35842e-08
5.12847e-05
8.95939e-10
-5.08645e-08
5.13254e-05
7.06335e-10
-4.26852e-08
5.13642e-05
-3.15391e-10
-3.59505e-08
5.14049e-05
-8.37093e-10
-3.97399e-08
5.14532e-05
-4.11842e-11
-4.89488e-08
5.15061e-05
8.77554e-10
-5.25395e-08
5.15534e-05
7.20051e-10
-4.93974e-08
5.15935e-05
-2.84289e-10
-4.14589e-08
5.16319e-05
-5.36948e-10
-3.56316e-08
5.16725e-05
3.75358e-10
-3.94669e-08
5.17188e-05
1.06677e-09
-4.69819e-08
5.17682e-05
5.3369e-10
-4.94151e-08
5.18129e-05
-9.07037e-10
-4.62254e-08
5.1853e-05
-1.41079e-09
-4.09288e-08
5.18923e-05
-7.74551e-11
-3.82162e-08
5.1933e-05
1.09664e-09
-4.07069e-08
5.1977e-05
4.42509e-10
-4.4274e-08
5.20228e-05
-9.14987e-10
-4.52443e-08
5.2067e-05
-8.21037e-10
-4.50725e-08
5.2109e-05
9.40471e-10
-4.26256e-08
5.21475e-05
1.80151e-09
-3.86991e-08
5.21842e-05
6.77902e-10
-3.76394e-08
5.22237e-05
-1.43934e-09
-3.82279e-08
5.2269e-05
-2.0227e-09
-4.39412e-08
5.23134e-05
4.14829e-11
-4.54727e-08
5.23546e-05
1.1824e-09
-4.21015e-08
3.90221e-10
-2.82709e-08
5.08139e-05
-4.22432e-10
-4.02563e-08
5.08584e-05
-5.60398e-10
-4.36554e-08
5.09085e-05
-4.8637e-10
-5.15473e-08
5.09625e-05
-1.48824e-11
-5.40449e-08
5.10108e-05
4.42943e-10
-5.02581e-08
5.10517e-05
2.97885e-10
-4.20484e-08
5.10912e-05
-5.14578e-10
-3.54451e-08
5.11325e-05
-9.70876e-10
-3.99442e-08
5.11814e-05
-3.76424e-10
-4.98526e-08
5.12361e-05
8.28757e-10
-5.39022e-08
5.12847e-05
1.18164e-09
-5.08266e-08
5.13254e-05
2.76787e-10
-4.2319e-08
5.13642e-05
-1.08876e-09
-3.57901e-08
5.14051e-05
-1.27735e-09
-3.99752e-08
5.14533e-05
2.6298e-10
-4.93318e-08
5.1506e-05
1.52756e-09
-5.25979e-08
5.15533e-05
1.14885e-09
-4.90887e-08
5.15935e-05
-5.41709e-10
-4.1202e-08
5.16321e-05
-1.1046e-09
-3.56737e-08
5.16727e-05
3.21695e-10
-3.9671e-08
5.17189e-05
1.60174e-09
-4.69705e-08
5.17681e-05
1.27556e-09
-4.92877e-08
5.18129e-05
-8.50849e-10
-4.61483e-08
5.18533e-05
-1.84078e-09
-4.09978e-08
5.18926e-05
-4.65183e-10
-3.82582e-08
5.19331e-05
1.199e-09
-4.06744e-08
5.1977e-05
9.1176e-10
-4.41572e-08
5.20229e-05
-7.11266e-10
-4.52144e-08
5.20671e-05
-1.04977e-09
-4.5138e-08
5.21092e-05
7.55698e-10
-4.25815e-08
5.21477e-05
1.85213e-09
-3.85332e-08
5.21844e-05
7.26804e-10
-3.76345e-08
5.22239e-05
-1.5784e-09
-3.84817e-08
5.22694e-05
-2.16729e-09
-4.4155e-08
5.23136e-05
2.55569e-11
-4.54857e-08
5.23546e-05
1.23558e-09
-4.19944e-08
4.12468e-10
-2.82526e-08
5.08135e-05
-3.96838e-10
-4.05581e-08
5.08582e-05
-5.87923e-10
-4.37653e-08
5.09085e-05
-6.28355e-10
-5.10641e-08
5.09626e-05
-1.13622e-10
-5.32638e-08
5.10109e-05
4.53135e-10
-5.00046e-08
5.10517e-05
4.26535e-10
-4.25879e-08
5.10911e-05
-4.11628e-10
-3.62323e-08
5.11325e-05
-1.06752e-09
-4.02047e-08
5.11814e-05
-5.68995e-10
-4.94896e-08
5.12361e-05
7.48745e-10
-5.32912e-08
5.12846e-05
1.29541e-09
-5.06081e-08
5.13253e-05
3.99428e-10
-4.27499e-08
5.13641e-05
-1.22692e-09
-3.6461e-08
5.14051e-05
-1.66371e-09
-4.02049e-08
5.14534e-05
8.36822e-11
-4.88349e-08
5.15059e-05
1.69756e-09
-5.19041e-08
5.15531e-05
1.45886e-09
-4.88508e-08
5.15935e-05
-3.97722e-10
-4.16649e-08
5.16322e-05
-1.17731e-09
-3.6338e-08
5.16729e-05
1.85174e-10
-3.97112e-08
5.17189e-05
1.62087e-09
-4.63136e-08
5.17679e-05
1.56392e-09
-4.86341e-08
5.18129e-05
-7.89479e-10
-4.63262e-08
5.18536e-05
-1.95377e-09
-4.17398e-08
5.18929e-05
-5.32098e-10
-3.86356e-08
5.19331e-05
1.40167e-09
-4.03976e-08
5.19768e-05
1.11169e-09
-4.37058e-08
5.20229e-05
-7.05653e-10
-4.52042e-08
5.20674e-05
-1.1592e-09
-4.5488e-08
5.21094e-05
5.94325e-10
-4.27164e-08
5.21475e-05
1.82776e-09
-3.82024e-08
5.2184e-05
8.52036e-10
-3.72402e-08
5.22238e-05
-1.61286e-09
-3.86917e-08
5.22696e-05
-2.32956e-09
-4.46481e-08
5.23139e-05
3.3558e-11
-4.55003e-08
5.23545e-05
1.3436e-09
-4.1624e-08
3.97521e-10
-2.8084e-08
5.08133e-05
-6.01374e-10
-3.99731e-08
5.08582e-05
-5.28412e-10
-4.37901e-08
5.09085e-05
-7.81631e-11
-5.16785e-08
5.09625e-05
5.01239e-10
-5.37012e-08
5.10107e-05
6.59987e-10
-4.98816e-08
5.10516e-05
9.73642e-11
-4.20474e-08
5.10911e-05
-8.70318e-10
-3.58486e-08
5.11326e-05
-1.37839e-09
-4.03405e-08
5.11816e-05
-5.90399e-10
-4.99739e-08
5.12361e-05
9.00564e-10
-5.34941e-08
5.12844e-05
1.4078e-09
-5.02861e-08
5.1325e-05
2.86857e-10
-4.2425e-08
5.13639e-05
-1.55014e-09
-3.65331e-08
5.14052e-05
-1.88586e-09
-4.05786e-08
5.14534e-05
2.63995e-12
-4.89688e-08
5.15058e-05
1.82339e-09
-5.17179e-08
5.15528e-05
1.728e-09
-4.8579e-08
5.15933e-05
-3.56502e-10
-4.18068e-08
5.16323e-05
-1.47319e-09
-3.67301e-08
5.16731e-05
-2.36548e-10
-3.96055e-08
5.1719e-05
1.60304e-09
-4.59067e-08
5.17678e-05
1.86603e-09
-4.83567e-08
5.18127e-05
-3.5709e-10
-4.66866e-08
5.18537e-05
-1.77128e-09
-4.21178e-08
5.18931e-05
-8.53634e-10
-3.84391e-08
5.19331e-05
1.09605e-09
-3.97543e-08
5.19766e-05
1.28155e-09
-4.33406e-08
5.20227e-05
-2.82021e-10
-4.56187e-08
5.20674e-05
-1.02212e-09
-4.60954e-08
5.21094e-05
3.75879e-10
-4.25756e-08
5.21476e-05
1.548e-09
-3.75131e-08
5.2184e-05
5.91864e-10
-3.69275e-08
5.22238e-05
-1.45774e-09
-3.92659e-08
5.22698e-05
-1.88067e-09
-4.53508e-08
5.23139e-05
1.18365e-10
-4.55116e-08
5.23544e-05
1.13531e-09
-4.11867e-08
2.74174e-10
-2.79613e-08
5.08133e-05
-4.08986e-10
-4.02939e-08
5.08582e-05
-6.00112e-10
-4.36743e-08
5.09085e-05
-2.93312e-10
-5.09967e-08
5.09626e-05
3.43053e-10
-5.29516e-08
5.10107e-05
6.62673e-10
-4.96187e-08
5.10516e-05
3.08568e-10
-4.2459e-08
5.10911e-05
-5.8544e-10
-3.65473e-08
5.11326e-05
-1.30702e-09
-4.07383e-08
5.11816e-05
-7.06794e-10
-4.98874e-08
5.12361e-05
6.73702e-10
-5.30764e-08
5.12843e-05
1.3019e-09
-4.99856e-08
5.13248e-05
5.32517e-10
-4.26876e-08
5.13639e-05
-1.31844e-09
-3.71665e-08
5.14053e-05
-1.94924e-09
-4.10361e-08
5.14535e-05
-3.86478e-10
-4.86891e-08
5.15056e-05
1.6069e-09
-5.09697e-08
5.15524e-05
1.79347e-09
-4.81352e-08
5.15931e-05
3.2627e-11
-4.21932e-08
5.16323e-05
-1.17427e-09
-3.75061e-08
5.16732e-05
-6.11153e-10
-3.98735e-08
5.17189e-05
1.14382e-09
-4.53348e-08
5.17674e-05
1.7464e-09
-4.76114e-08
5.18125e-05
8.07391e-11
-4.67844e-08
5.18539e-05
-1.36149e-09
-4.28302e-08
5.18933e-05
-7.71579e-10
-3.89451e-08
5.1933e-05
8.61065e-10
-3.94473e-08
5.19763e-05
1.09934e-09
-4.27697e-08
5.20226e-05
-4.64682e-11
-4.55769e-08
5.20676e-05
-6.77934e-10
-4.65295e-08
5.21095e-05
1.66763e-10
-4.27902e-08
5.21473e-05
1.0404e-09
-3.71299e-08
5.21835e-05
3.82527e-10
-3.6496e-08
5.22237e-05
-1.13988e-09
-3.94966e-08
5.227e-05
-1.43281e-09
-4.59076e-08
5.2314e-05
1.84495e-10
-4.55146e-08
5.2354e-05
9.35864e-10
-4.0689e-08
1.28804e-10
-2.77638e-08
5.08132e-05
-3.97363e-10
-4.01927e-08
5.08582e-05
-4.95734e-10
-4.39399e-08
5.09084e-05
9.30245e-11
-5.15195e-08
5.09623e-05
6.24141e-10
-5.32468e-08
5.10105e-05
4.84353e-10
-4.9372e-08
5.10515e-05
-1.67333e-10
-4.19114e-08
5.10912e-05
-9.54464e-10
-3.62273e-08
5.11329e-05
-1.23778e-09
-4.10605e-08
5.11818e-05
-2.91749e-10
-5.07161e-08
5.12362e-05
8.12623e-10
-5.34842e-08
5.12841e-05
1.13748e-09
-4.95964e-08
5.13244e-05
2.06182e-10
-4.19145e-08
5.13637e-05
-1.37905e-09
-3.69974e-08
5.14053e-05
-1.63521e-09
-4.15206e-08
5.14536e-05
-2.36718e-10
-4.92625e-08
5.15054e-05
1.356e-09
-5.09222e-08
5.15521e-05
1.47025e-09
-4.75677e-08
5.15928e-05
-4.6736e-11
-4.18979e-08
5.16323e-05
-1.12304e-09
-3.78464e-08
5.16734e-05
-6.10189e-10
-4.04148e-08
5.1719e-05
9.48687e-10
-4.53337e-08
5.17673e-05
1.47039e-09
-4.72356e-08
5.18123e-05
3.51136e-10
-4.65182e-08
5.18537e-05
-8.82197e-10
-4.29146e-08
5.18933e-05
-6.37062e-10
-3.90919e-08
5.19329e-05
5.25464e-10
-3.9274e-08
5.1976e-05
8.77664e-10
-4.24282e-08
5.20222e-05
1.88355e-10
-4.55363e-08
5.20673e-05
-3.12316e-10
-4.68557e-08
5.21095e-05
1.39078e-10
-4.29393e-08
5.21473e-05
5.27054e-10
-3.68241e-08
5.21834e-05
-9.32286e-11
-3.62683e-08
5.22235e-05
-8.3671e-10
-3.97077e-08
5.22699e-05
-5.38868e-10
-4.63547e-08
5.2314e-05
5.07957e-10
-4.56722e-08
5.23539e-05
5.60025e-10
-4.04581e-08
-1.60691e-10
-2.76201e-08
5.08128e-05
-1.16818e-09
-4.08646e-08
5.08581e-05
-4.50882e-10
-4.41771e-08
5.09082e-05
2.74828e-10
-5.12171e-08
5.09623e-05
5.85561e-10
-5.29658e-08
5.10106e-05
3.31271e-10
-4.94076e-08
5.10515e-05
-1.85654e-10
-4.22308e-08
5.10911e-05
-7.42421e-10
-3.66601e-08
5.11328e-05
-8.33886e-10
-4.13315e-08
5.11817e-05
6.59783e-11
-5.06122e-08
5.12359e-05
7.38734e-10
-5.31883e-08
5.12839e-05
8.26477e-10
-4.94016e-08
5.13243e-05
-1.15078e-11
-4.20536e-08
5.13636e-05
-1.19405e-09
-3.73586e-08
5.14054e-05
-1.37004e-09
-4.1744e-08
5.14535e-05
-2.84278e-10
-4.91044e-08
5.15052e-05
1.00947e-09
-5.04338e-08
5.15518e-05
1.059e-09
-4.7242e-08
5.15926e-05
-2.71149e-11
-4.20389e-08
5.16324e-05
-8.04061e-10
-3.82599e-08
5.16734e-05
-5.1988e-10
-4.07424e-08
5.17188e-05
6.81818e-10
-4.52207e-08
5.17669e-05
1.20388e-09
-4.69336e-08
5.1812e-05
5.37862e-10
-4.64268e-08
5.18537e-05
-4.06083e-10
-4.31856e-08
5.18934e-05
-3.91397e-10
-3.92863e-08
5.19328e-05
2.73868e-10
-3.9196e-08
5.19758e-05
5.72598e-10
-4.22228e-08
5.20221e-05
3.07653e-10
-4.54392e-08
5.20673e-05
1.8001e-11
-4.69136e-08
5.21095e-05
3.27914e-11
-4.29976e-08
5.21471e-05
-1.17047e-11
-3.67593e-08
5.21831e-05
-3.6371e-10
-3.62475e-08
5.22234e-05
-4.82771e-10
-3.97893e-08
5.227e-05
9.57859e-11
-4.63683e-08
5.23139e-05
6.79412e-10
-4.5502e-08
5.23537e-05
3.5023e-10
-4.03617e-08
-2.52316e-10
-2.77212e-08
5.0813e-05
-9.33807e-10
-4.0353e-08
5.08582e-05
-3.33756e-10
-4.39659e-08
5.09081e-05
2.66797e-10
-5.09426e-08
5.0962e-05
4.36794e-10
-5.26594e-08
5.10101e-05
1.90683e-10
-4.93104e-08
5.10512e-05
-2.18589e-10
-4.23884e-08
5.1091e-05
-6.24568e-10
-3.69664e-08
5.11329e-05
-4.78359e-10
-4.1597e-08
5.11818e-05
2.02477e-10
-5.06846e-08
5.12359e-05
4.83783e-10
-5.31559e-08
5.12836e-05
4.56505e-10
-4.91298e-08
5.13239e-05
-9.64431e-11
-4.18606e-08
5.13633e-05
-8.40635e-10
-3.74356e-08
5.14053e-05
-8.89048e-10
-4.19645e-08
5.14535e-05
-3.05519e-10
-4.91723e-08
5.15051e-05
3.29979e-10
-5.0259e-08
5.15515e-05
4.60318e-10
-4.6998e-08
5.15923e-05
2.23979e-11
-4.2077e-08
5.16321e-05
-3.58905e-10
-3.86549e-08
5.16734e-05
-1.87079e-10
-4.10432e-08
5.17188e-05
3.5346e-10
-4.50748e-08
5.17668e-05
6.11435e-10
-4.65809e-08
5.18118e-05
5.09531e-10
-4.6173e-08
5.18535e-05
1.86329e-10
-4.32862e-08
5.18932e-05
7.8813e-11
-3.95262e-08
5.19325e-05
1.54612e-10
-3.92396e-08
5.19755e-05
1.68066e-10
-4.19852e-08
5.20218e-05
1.64215e-10
-4.51984e-08
5.20671e-05
1.75282e-10
-4.68689e-08
5.21093e-05
5.92215e-11
-4.30929e-08
5.21469e-05
-3.16323e-10
-3.68633e-08
5.2183e-05
-6.0298e-10
-3.63068e-08
5.22233e-05
-2.2753e-10
-3.98362e-08
5.22699e-05
6.44481e-10
-4.63299e-08
5.23137e-05
8.90278e-10
-4.54441e-08
5.23534e-05
7.90371e-11
-4.02939e-08
-3.74153e-10
-2.77657e-08
5.0813e-05
-8.48863e-10
-4.01347e-08
5.08583e-05
-3.41465e-10
-4.38851e-08
5.09081e-05
2.28294e-10
-5.07946e-08
5.09619e-05
5.17263e-10
-5.25689e-08
5.101e-05
3.17389e-10
-4.93911e-08
5.1051e-05
-7.6121e-11
-4.25807e-08
5.10908e-05
-3.12409e-10
-3.71549e-08
5.11326e-05
-1.26036e-10
-4.16361e-08
5.11815e-05
2.98281e-10
-5.06562e-08
5.12357e-05
3.58613e-10
-5.31527e-08
5.12835e-05
4.30076e-11
-4.91256e-08
5.13238e-05
-4.07969e-10
-4.18693e-08
5.13633e-05
-6.21373e-10
-3.74185e-08
5.14053e-05
-4.69067e-10
-4.20028e-08
5.14534e-05
-2.70878e-10
-4.92241e-08
5.15049e-05
-1.80844e-10
-5.01385e-08
5.15513e-05
-1.87289e-10
-4.68174e-08
5.15922e-05
-6.25585e-11
-4.19898e-08
5.16321e-05
2.26991e-10
-3.88102e-08
5.16733e-05
3.30793e-10
-4.13323e-08
5.17186e-05
1.78406e-10
-4.52284e-08
5.17665e-05
7.36739e-11
-4.64924e-08
5.18116e-05
3.43056e-10
-4.6022e-08
5.18534e-05
6.64714e-10
-4.32047e-08
5.18931e-05
5.77982e-10
-3.95344e-08
5.19324e-05
3.36547e-11
-3.92409e-08
5.19753e-05
-3.19886e-10
-4.18976e-08
5.20217e-05
-7.52106e-11
-4.50919e-08
5.2067e-05
3.1475e-10
-4.68459e-08
5.21092e-05
1.56507e-10
-4.31859e-08
5.21467e-05
-5.57156e-10
-3.695e-08
5.21829e-05
-9.14597e-10
-3.62599e-08
5.22232e-05
-6.94697e-11
-3.97557e-08
5.22698e-05
1.09924e-09
-4.62054e-08
5.23136e-05
1.14705e-09
-4.54057e-08
5.23533e-05
-2.43362e-11
-4.04415e-08
-3.87397e-10
-2.7906e-08
5.08132e-05
-4.66228e-10
-3.98912e-08
5.08584e-05
-2.68474e-10
-4.35054e-08
5.09082e-05
1.41035e-10
-5.04618e-08
5.09618e-05
4.2809e-10
-5.2401e-08
5.10098e-05
4.43026e-10
-4.9402e-08
5.10508e-05
2.17375e-10
-4.27602e-08
5.10908e-05
-3.92841e-12
-3.73963e-08
5.11328e-05
9.73385e-11
-4.16702e-08
5.11818e-05
1.58933e-10
-5.05578e-08
5.12359e-05
-6.71128e-11
-5.30267e-08
5.12835e-05
-3.30476e-10
-4.90768e-08
5.13236e-05
-3.92985e-10
-4.1888e-08
5.13631e-05
-2.14039e-10
-3.73905e-08
5.14052e-05
-2.78002e-11
-4.18837e-08
5.14534e-05
-3.40399e-10
-4.9058e-08
5.15049e-05
-7.23094e-10
-5.02548e-08
5.15512e-05
-6.3735e-10
-4.70557e-08
5.15919e-05
1.33998e-10
-4.21423e-08
5.16317e-05
8.03755e-10
-3.87106e-08
5.1673e-05
5.96334e-10
-4.10295e-08
5.17184e-05
-2.30498e-10
-4.50662e-08
5.17665e-05
-5.5009e-10
-4.65605e-08
5.18115e-05
3.31457e-10
-4.62406e-08
5.18532e-05
1.21997e-09
-4.32584e-08
5.18928e-05
1.09771e-09
-3.94571e-08
5.19321e-05
-1.44258e-10
-3.91464e-08
5.19751e-05
-9.06923e-10
-4.18891e-08
5.20215e-05
-3.9609e-10
-4.50534e-08
5.20668e-05
4.36338e-10
-4.6753e-08
5.21089e-05
2.85963e-10
-4.31641e-08
5.21465e-05
-6.70971e-10
-3.70904e-08
5.21827e-05
-1.10467e-09
-3.64411e-08
5.22231e-05
2.68858e-11
-3.98172e-08
5.22697e-05
1.31429e-09
-4.60121e-08
5.23134e-05
1.22841e-09
-4.51223e-08
5.23531e-05
-1.36857e-10
-4.04657e-08
-3.7293e-10
-2.80608e-08
5.08132e-05
-1.12433e-11
-4.00869e-08
5.08584e-05
-1.41726e-10
-4.36669e-08
5.09081e-05
1.99305e-11
-5.03795e-08
5.09617e-05
2.95833e-10
-5.20832e-08
5.10097e-05
4.24645e-10
-4.91437e-08
5.10508e-05
3.72394e-10
-4.26781e-08
5.10908e-05
3.73586e-10
-3.74709e-08
5.11327e-05
3.86541e-10
-4.18715e-08
5.11816e-05
1.70278e-10
-5.07698e-08
5.12356e-05
-3.64389e-10
-5.30728e-08
5.12834e-05
-7.56595e-10
-4.91091e-08
5.13236e-05
-5.6775e-10
-4.19023e-08
5.13631e-05
1.00414e-10
-3.73656e-08
5.14051e-05
4.67649e-10
-4.19069e-08
5.14532e-05
-3.57961e-10
-4.9073e-08
5.15047e-05
-1.22423e-09
-5.026e-08
5.15511e-05
-1.20732e-09
-4.70056e-08
5.15919e-05
1.86833e-10
-4.2057e-08
5.16317e-05
1.34994e-09
-3.85831e-08
5.16728e-05
1.08257e-09
-4.10851e-08
5.17183e-05
-3.91959e-10
-4.52894e-08
5.17664e-05
-1.15232e-09
-4.67294e-08
5.18114e-05
1.76354e-10
-4.6138e-08
5.1853e-05
1.56615e-09
-4.28757e-08
5.18925e-05
1.43904e-09
-3.91774e-08
5.19319e-05
-3.1722e-10
-3.92117e-08
5.19751e-05
-1.25642e-09
-4.22613e-08
5.20215e-05
-6.22479e-10
-4.52836e-08
5.20667e-05
5.10943e-10
-4.66147e-08
5.21087e-05
3.84556e-10
-4.2882e-08
5.21464e-05
-8.85549e-10
-3.7026e-08
5.21828e-05
-1.40282e-09
-3.66375e-08
5.22233e-05
1.74114e-10
-3.99366e-08
5.22696e-05
1.61876e-09
-4.58732e-08
5.23132e-05
1.24188e-09
-4.49036e-08
5.23531e-05
-2.64212e-10
-4.05508e-08
-3.34489e-10
-2.8188e-08
5.08132e-05
1.76883e-11
-3.96733e-08
5.08584e-05
-3.10376e-10
-4.33469e-08
5.09081e-05
-5.2063e-11
-5.03393e-08
5.09616e-05
3.72663e-10
-5.22326e-08
5.10095e-05
6.09228e-10
-4.92968e-08
5.10506e-05
5.6768e-10
-4.27551e-08
5.10907e-05
4.41873e-10
-3.73564e-08
5.11327e-05
3.22853e-10
-4.16213e-08
5.11817e-05
1.26682e-11
-5.06219e-08
5.12357e-05
-6.06321e-10
-5.31462e-08
5.12835e-05
-8.90589e-10
-4.94306e-08
5.13237e-05
-4.47647e-10
-4.21252e-08
5.1363e-05
4.11995e-10
-3.71319e-08
5.14049e-05
7.32986e-10
-4.14553e-08
5.1453e-05
-3.98576e-10
-4.88686e-08
5.15047e-05
-1.38915e-09
-5.05897e-08
5.15511e-05
-1.27053e-09
-4.76221e-08
5.15918e-05
5.55909e-10
-4.22486e-08
5.16314e-05
1.6931e-09
-3.80663e-08
5.16724e-05
1.00143e-09
-4.04739e-08
5.1718e-05
-8.43385e-10
-4.52305e-08
5.17663e-05
-1.36874e-09
-4.7275e-08
5.18114e-05
4.59194e-10
-4.66819e-08
5.18529e-05
1.97743e-09
-4.29069e-08
5.18923e-05
1.51406e-09
-3.87359e-08
5.19318e-05
-8.68769e-10
-3.89616e-08
5.19751e-05
-1.79603e-09
-4.24386e-08
5.20215e-05
-5.576e-10
-4.55686e-08
5.20666e-05
8.35831e-10
-4.65883e-08
5.21085e-05
3.78886e-10
-4.27604e-08
5.21462e-05
-1.19487e-09
-3.70879e-08
5.21827e-05
-1.57619e-09
-3.68446e-08
5.22232e-05
2.81232e-10
-3.99821e-08
5.22695e-05
1.67553e-09
-4.56565e-08
5.23131e-05
1.06481e-09
-4.46285e-08
5.23531e-05
-3.71399e-10
-4.0629e-08
-2.26711e-10
-2.83683e-08
5.08133e-05
4.50403e-10
-4.01146e-08
5.08583e-05
-6.24528e-11
-4.3611e-08
5.0908e-05
-4.85468e-11
-5.04365e-08
5.09615e-05
1.7358e-10
-5.19698e-08
5.10094e-05
3.6597e-10
-4.88041e-08
5.10505e-05
5.10637e-10
-4.24701e-08
5.10907e-05
6.79774e-10
-3.75414e-08
5.11326e-05
6.85424e-10
-4.20624e-08
5.11815e-05
1.39677e-10
-5.09184e-08
5.12355e-05
-9.1694e-10
-5.31446e-08
5.12834e-05
-1.3232e-09
-4.92462e-08
5.13236e-05
-6.09723e-10
-4.20107e-08
5.13631e-05
6.39182e-10
-3.71222e-08
5.14048e-05
1.18599e-09
-4.15141e-08
5.14529e-05
-3.28019e-10
-4.89586e-08
5.15047e-05
-1.671e-09
-5.07267e-08
5.15513e-05
-1.43267e-09
-4.77038e-08
5.15919e-05
7.8712e-10
-4.20557e-08
5.16313e-05
1.95577e-09
-3.77477e-08
5.16722e-05
1.109e-09
-4.03021e-08
5.17179e-05
-9.92537e-10
-4.5568e-08
5.17666e-05
-1.57355e-09
-4.77406e-08
5.18116e-05
5.5448e-10
-4.65348e-08
5.18526e-05
2.11883e-09
-4.22309e-08
5.18919e-05
1.18491e-09
-3.82095e-08
5.19317e-05
-1.27526e-09
-3.92403e-08
5.19753e-05
-1.80531e-09
-4.31884e-08
5.20217e-05
-1.52752e-10
-4.60674e-08
5.20664e-05
1.0387e-09
-4.62639e-08
5.21081e-05
7.7969e-11
-4.20742e-08
5.21461e-05
-1.67014e-09
-3.70369e-08
5.21831e-05
-1.76836e-09
-3.73308e-08
5.22235e-05
6.95406e-10
-4.03e-08
5.22694e-05
2.1087e-09
-4.55518e-08
5.23129e-05
8.13223e-10
-4.43989e-08
5.2353e-05
-8.10797e-10
-4.06002e-08
-2.75907e-10
-2.83978e-08
5.08132e-05
2.28104e-10
-3.99601e-08
5.08583e-05
-3.34095e-10
-4.34192e-08
5.09079e-05
-8.9727e-11
-5.04114e-08
5.09613e-05
4.15056e-10
-5.22356e-08
5.10093e-05
5.73263e-10
-4.91793e-08
5.10506e-05
4.81014e-10
-4.26062e-08
5.10907e-05
4.40859e-10
-3.72336e-08
5.11327e-05
3.62156e-10
-4.15333e-08
5.11816e-05
-8.03264e-11
-5.06284e-08
5.12357e-05
-9.09924e-10
-5.34253e-08
5.12837e-05
-1.1908e-09
-4.99217e-08
5.1324e-05
-3.63713e-10
-4.24e-08
5.13632e-05
8.23164e-10
-3.67171e-08
5.14048e-05
1.1521e-09
-4.07305e-08
5.14528e-05
-3.53267e-10
-4.86585e-08
5.15048e-05
-1.47789e-09
-5.11861e-08
5.15515e-05
-1.0359e-09
-4.8488e-08
5.1592e-05
1.10556e-09
-4.21371e-08
5.16312e-05
1.9074e-09
-3.70938e-08
5.1672e-05
4.91796e-10
-3.96395e-08
5.17178e-05
-1.39192e-09
-4.57444e-08
5.17666e-05
-1.22446e-09
-4.83752e-08
5.18117e-05
1.05716e-09
-4.68565e-08
5.18526e-05
2.27592e-09
-4.21019e-08
5.18918e-05
6.07585e-10
-3.77816e-08
5.19317e-05
-1.8572e-09
-3.92814e-08
5.19754e-05
-1.96234e-09
-4.35176e-08
5.20218e-05
3.36837e-10
-4.61335e-08
5.20664e-05
1.49366e-09
-4.60551e-08
5.2108e-05
-2.56011e-10
-4.20078e-08
5.2146e-05
-2.0855e-09
-3.74022e-08
5.21831e-05
-1.74393e-09
-3.75973e-08
5.22235e-05
1.00831e-09
-4.00971e-08
5.22693e-05
2.21034e-09
-4.52081e-08
5.23127e-05
4.50175e-10
-4.42841e-08
5.23531e-05
-9.55347e-10
-4.09057e-08
-1.94771e-10
-2.85404e-08
5.08131e-05
-3.24103e-10
-4.0817e-08
5.08584e-05
-1.09735e-10
-4.40189e-08
5.09079e-05
1.36749e-10
-5.05879e-08
5.09615e-05
3.40533e-10
-5.21544e-08
5.10095e-05
2.90895e-10
-4.88267e-08
5.10508e-05
1.97439e-10
-4.2301e-08
5.10909e-05
3.44335e-10
-3.73195e-08
5.11328e-05
5.18053e-10
-4.18837e-08
5.11816e-05
1.06945e-10
-5.0951e-08
5.12357e-05
-8.42797e-10
-5.35792e-08
5.12838e-05
-1.23689e-09
-4.99015e-08
5.13242e-05
-5.06908e-10
-4.21876e-08
5.13634e-05
7.59403e-10
-3.64623e-08
5.14048e-05
1.19989e-09
-4.05478e-08
5.14528e-05
-1.76562e-10
-4.88097e-08
5.15051e-05
-1.29999e-09
-5.15161e-08
5.15519e-05
-6.57972e-10
-4.86841e-08
5.15923e-05
1.19583e-09
-4.17859e-08
5.16312e-05
1.65659e-09
-3.66249e-08
5.16719e-05
1.03369e-10
-3.95481e-08
5.1718e-05
-1.37926e-09
-4.62499e-08
5.17671e-05
-8.99301e-10
-4.88729e-08
5.1812e-05
1.21631e-09
-4.6469e-08
5.18525e-05
2.08022e-09
-4.12092e-08
5.18916e-05
-2.15017e-10
-3.74287e-08
5.19319e-05
-2.2052e-09
-3.9844e-08
5.19759e-05
-1.45604e-09
-4.43758e-08
5.2022e-05
1.10044e-09
-4.631e-08
5.20663e-05
1.64553e-09
-4.54685e-08
5.21078e-05
-8.41911e-10
-4.15073e-08
5.21462e-05
-2.59889e-09
-3.7565e-08
5.21837e-05
-1.68154e-09
-3.81943e-08
5.22239e-05
1.5405e-09
-4.02253e-08
5.22691e-05
2.6441e-09
-4.48643e-08
5.23126e-05
8.64508e-11
-4.41753e-08
5.23533e-05
-1.48512e-09
-4.10869e-08
-3.09166e-10
-2.86137e-08
5.08133e-05
-5.45873e-10
-4.00791e-08
5.08586e-05
-3.01177e-10
-4.36779e-08
5.09081e-05
1.73919e-10
-5.0485e-08
5.09615e-05
5.96101e-10
-5.21833e-08
5.10095e-05
5.02304e-10
-4.91191e-08
5.10508e-05
1.36323e-10
-4.25796e-08
5.10911e-05
8.03351e-12
-3.71976e-08
5.1133e-05
1.02567e-10
-4.14229e-08
5.11818e-05
-6.21226e-11
-5.06317e-08
5.12359e-05
-5.84509e-10
-5.37855e-08
5.12841e-05
-7.97371e-10
-5.04639e-08
5.13245e-05
-3.05107e-10
-4.23599e-08
5.13636e-05
6.18288e-10
-3.5927e-08
5.14047e-05
8.15181e-10
-3.98135e-08
5.14527e-05
-1.30108e-10
-4.8592e-08
5.15053e-05
-7.79302e-10
-5.19923e-08
5.15522e-05
-6.24099e-11
-4.92493e-08
5.15926e-05
1.08852e-09
-4.17605e-08
5.16313e-05
1.0181e-09
-3.61167e-08
5.16719e-05
-5.72978e-10
-3.94359e-08
5.17182e-05
-1.48269e-09
-4.66491e-08
5.17675e-05
-2.78345e-10
-4.9192e-08
5.18124e-05
1.56758e-09
-4.62721e-08
5.18525e-05
1.69814e-09
-4.08033e-08
5.18916e-05
-7.74993e-10
-3.75825e-08
5.19321e-05
-2.257e-09
-4.02817e-08
5.19763e-05
-1.05626e-09
-4.46565e-08
5.20224e-05
1.42666e-09
-4.58836e-08
5.20664e-05
1.70185e-09
-4.48568e-08
5.21077e-05
-1.10367e-09
-4.17508e-08
5.21462e-05
-2.71693e-09
-3.83953e-08
5.21839e-05
-1.19119e-09
-3.85698e-08
5.22241e-05
1.8737e-09
-3.96341e-08
5.2269e-05
2.392e-09
-4.41795e-08
5.23125e-05
-2.67471e-10
-4.42882e-08
5.23534e-05
-1.38769e-09
-4.16841e-08
-1.54754e-10
-2.8746e-08
5.08136e-05
-4.07573e-10
-4.03339e-08
5.08589e-05
-9.76066e-11
-4.40676e-08
5.09083e-05
3.49929e-10
-5.05029e-08
5.09616e-05
5.18827e-10
-5.1811e-08
5.10095e-05
2.34858e-10
-4.86583e-08
5.10509e-05
-1.95691e-10
-4.23641e-08
5.10912e-05
-1.97844e-10
-3.74018e-08
5.11331e-05
1.39225e-10
-4.18473e-08
5.11818e-05
1.90071e-10
-5.09438e-08
5.12359e-05
-2.74188e-10
-5.3782e-08
5.12841e-05
-6.21695e-10
-5.02593e-08
5.13246e-05
-4.22725e-10
-4.21272e-08
5.13637e-05
3.66784e-10
-3.57666e-08
5.14047e-05
7.11912e-10
-3.98851e-08
5.14527e-05
9.3439e-11
-4.87449e-08
5.15054e-05
-4.46471e-10
-5.20885e-08
5.15524e-05
1.19656e-10
-4.9003e-08
5.15926e-05
8.60903e-10
-4.14339e-08
5.16312e-05
5.9658e-10
-3.613e-08
5.16719e-05
-6.72714e-10
-3.99181e-08
5.17184e-05
-1.26962e-09
-4.70682e-08
5.17678e-05
-1.84612e-10
-4.8984e-08
5.18125e-05
1.20751e-09
-4.54511e-08
5.18524e-05
1.18512e-09
-4.01734e-08
5.18917e-05
-9.43326e-10
-3.79933e-08
5.19326e-05
-2.07922e-09
-4.11047e-08
5.19766e-05
-5.37779e-10
-4.48997e-08
5.20223e-05
1.6403e-09
-4.5261e-08
5.20661e-05
1.49996e-09
-4.42723e-08
5.21078e-05
-1.16658e-09
-4.20314e-08
5.21468e-05
-2.5079e-09
-3.91275e-08
5.21846e-05
-1.02848e-09
-3.88178e-08
5.22242e-05
1.74748e-09
-3.90114e-08
5.22687e-05
2.39967e-09
-4.35545e-08
5.23125e-05
-1.76288e-10
-4.4685e-08
5.23539e-05
-1.45503e-09
-4.2385e-08
-2.95564e-10
-2.87862e-08
5.08137e-05
-3.92755e-10
-4.00002e-08
5.08589e-05
-1.22667e-10
-4.38108e-08
5.09083e-05
3.62994e-10
-5.03446e-08
5.09616e-05
6.4971e-10
-5.19102e-08
5.10095e-05
3.90185e-10
-4.90102e-08
5.10509e-05
-1.82969e-10
-4.27041e-08
5.10912e-05
-3.457e-10
-3.74076e-08
5.1133e-05
-9.93871e-11
-4.14762e-08
5.11817e-05
1.16447e-10
-5.05385e-08
5.12359e-05
-2.37956e-11
-5.37339e-08
5.12842e-05
-2.23823e-10
-5.05178e-08
5.13247e-05
-2.15531e-10
-4.22891e-08
5.13637e-05
1.64721e-10
-3.54706e-08
5.14045e-05
3.81422e-10
-3.94062e-08
5.14526e-05
1.46862e-10
-4.85332e-08
5.15054e-05
2.19375e-12
-5.23342e-08
5.15525e-05
3.40979e-10
-4.93169e-08
5.15927e-05
5.03657e-10
-4.15057e-08
5.16312e-05
-4.20748e-11
-3.59693e-08