/*--------------------------------*- C++ -*----------------------------------*\
  =========                 |
  \\      /  F ield         | OpenFOAM: The Open Source CFD Toolbox
   \\    /   O peration     | Website:  https://openfoam.org
    \\  /    A nd           | Version:  9
     \\/     M anipulation  |
\*---------------------------------------------------------------------------*/
FoamFile
{
    format      ascii;
    class       volVectorField;
    location    "1200";
    object      U;
}
// * * * * * * * * * * * * * * * * * * * * * * * * * * * * * * * * * * * * * //

dimensions      [0 1 -1 0 0 0 0];

internalField   nonuniform List<vector> 
82710
(
(5.07837 -0.000115817 -5.57748e-05)
(5.08285 -0.000123762 -2.58801e-05)
(5.08797 -0.000160517 3.40729e-05)
(5.09324 -0.00018705 4.85692e-05)
(5.09821 -0.00017734 2.25383e-05)
(5.10243 -0.000140377 -1.30694e-05)
(5.10612 -0.00010453 -3.64463e-05)
(5.11031 -0.000109738 -1.53939e-05)
(5.11533 -0.000156445 4.05199e-05)
(5.12069 -0.000190626 4.27855e-05)
(5.12574 -0.000176198 1.77267e-05)
(5.12989 -0.000133676 -3.27432e-05)
(5.13337 -9.70433e-05 -6.67268e-05)
(5.1375 -0.000108205 -5.37888e-05)
(5.14259 -0.000159912 -2.2069e-05)
(5.1478 -0.000187997 2.00111e-05)
(5.15262 -0.000168056 3.88363e-05)
(5.15666 -0.000127979 2.79397e-05)
(5.16021 -0.000102724 -4.01226e-07)
(5.16437 -0.000118061 -1.23736e-05)
(5.16924 -0.000155219 2.08062e-05)
(5.17409 -0.000166727 6.1009e-05)
(5.17859 -0.000147716 6.43668e-05)
(5.18261 -0.000127149 6.12115e-06)
(5.18643 -0.000119848 -6.06462e-05)
(5.19057 -0.000127217 -6.34028e-05)
(5.19499 -0.000138052 3.71572e-06)
(5.19949 -0.000142218 6.57425e-05)
(5.20406 -0.000148804 4.57961e-05)
(5.20834 -0.000149533 -4.93397e-05)
(5.21216 -0.000128929 -8.71425e-05)
(5.21583 -0.000109262 -4.6088e-05)
(5.21959 -0.000107769 4.29313e-05)
(5.22395 -0.000135928 6.72457e-05)
(5.22902 -0.00015669 1.40732e-05)
(5.2326 -0.000180064 -3.97862e-05)
(5.23738 0.00181724 -1.85612e-05)
(5.07842 -0.000118931 -5.39838e-05)
(5.08287 -0.000127458 9.35993e-06)
(5.08799 -0.000163529 4.47357e-05)
(5.09327 -0.000187009 3.86084e-05)
(5.09823 -0.000174277 -4.51268e-06)
(5.10243 -0.000137628 -4.46724e-05)
(5.10612 -0.000104844 -2.74252e-05)
(5.11031 -0.000111966 2.79599e-05)
(5.11532 -0.000157775 4.09557e-05)
(5.12066 -0.000188315 2.79269e-05)
(5.12572 -0.000172845 -1.13058e-05)
(5.1299 -0.000132469 -3.95119e-05)
(5.13342 -9.9448e-05 -4.84135e-05)
(5.13755 -0.000111363 -3.6589e-05)
(5.14261 -0.000161123 -1.35329e-05)
(5.14779 -0.000187016 1.14335e-05)
(5.15261 -0.000167155 2.95212e-05)
(5.15667 -0.000128493 2.79489e-05)
(5.16024 -0.000103552 1.09248e-06)
(5.16439 -0.000117733 -1.52547e-05)
(5.16923 -0.000153933 1.75001e-05)
(5.17408 -0.000166215 6.24595e-05)
(5.17859 -0.000148489 6.50504e-05)
(5.18263 -0.000127855 4.36311e-06)
(5.18645 -0.000119235 -5.88422e-05)
(5.19057 -0.000126468 -5.45117e-05)
(5.19499 -0.000138503 2.40381e-05)
(5.1995 -0.000143774 6.90196e-05)
(5.20408 -0.000149228 2.86467e-05)
(5.20835 -0.00014761 -7.13883e-05)
(5.21216 -0.000126448 -9.22233e-05)
(5.21583 -0.000108926 -2.08313e-05)
(5.21962 -0.000110028 6.11167e-05)
(5.22398 -0.000137977 6.23343e-05)
(5.22903 -0.000156672 -1.6114e-05)
(5.2326 -0.000178761 -5.41259e-05)
(5.23738 0.0018176 -2.03491e-05)
(5.07839 -0.000117432 -5.75954e-05)
(5.08284 -0.000126563 3.67049e-05)
(5.08803 -0.000166611 6.31473e-05)
(5.09333 -0.000191008 5.70943e-05)
(5.09827 -0.000175439 -7.27485e-06)
(5.10246 -0.000136024 -6.88478e-05)
(5.10608 -0.000101275 -3.84242e-05)
(5.11028 -0.00010966 4.56997e-05)
(5.11538 -0.000159145 4.91142e-05)
(5.12073 -0.00019043 2.74801e-05)
(5.12576 -0.000173965 -3.09989e-05)
(5.12991 -0.000131734 -4.92821e-05)
(5.13342 -9.82358e-05 -4.47462e-05)
(5.13755 -0.000110777 -2.11622e-05)
(5.14262 -0.000161972 1.05314e-06)
(5.14782 -0.000188737 1.0567e-05)
(5.15263 -0.000168152 1.42528e-05)
(5.15668 -0.00012775 1.27229e-05)
(5.16024 -0.000101409 -8.28978e-06)
(5.1644 -0.000116077 -1.93631e-05)
(5.16924 -0.000154146 1.75396e-05)
(5.1741 -0.000168055 6.15245e-05)
(5.17862 -0.000149945 6.15209e-05)
(5.18264 -0.000127477 -7.34843e-07)
(5.18645 -0.000117628 -5.60175e-05)
(5.19057 -0.000125619 -4.50429e-05)
(5.19499 -0.000139944 3.49466e-05)
(5.19952 -0.000145896 7.10285e-05)
(5.20411 -0.000149541 1.97944e-05)
(5.20836 -0.000145512 -8.01421e-05)
(5.21215 -0.00012435 -9.23644e-05)
(5.21581 -0.00010875 -4.29184e-06)
(5.21962 -0.000111848 7.10349e-05)
(5.224 -0.000139712 5.75112e-05)
(5.22904 -0.000156205 -3.28871e-05)
(5.23259 -0.000176957 -6.43991e-05)
(5.23736 0.00181833 -2.19711e-05)
(5.07843 -0.000115512 -3.39181e-05)
(5.08286 -0.000126472 4.57131e-05)
(5.08808 -0.000170335 6.02059e-05)
(5.09338 -0.000194733 4.03996e-05)
(5.09831 -0.000175651 -1.7773e-05)
(5.10248 -0.000132941 -5.77961e-05)
(5.10605 -9.75142e-05 -1.71645e-05)
(5.11027 -0.000108635 4.69295e-05)
(5.1154 -0.000160972 4.09376e-05)
(5.12074 -0.000191999 2.52737e-06)
(5.12576 -0.000173561 -3.95242e-05)
(5.12993 -0.000130325 -3.87118e-05)
(5.13345 -9.7231e-05 -1.80367e-05)
(5.13758 -0.000111352 -5.56083e-06)
(5.14263 -0.000163798 -9.47746e-06)
(5.14781 -0.000190412 -9.93465e-06)
(5.15263 -0.000168737 8.56293e-06)
(5.1567 -0.000126911 2.04429e-05)
(5.16027 -9.94536e-05 -7.66179e-07)
(5.16441 -0.000114907 -3.16948e-05)
(5.16923 -0.000154731 -1.32215e-05)
(5.17409 -0.000169956 4.54459e-05)
(5.17864 -0.000150906 6.30258e-05)
(5.18268 -0.00012637 2.07084e-05)
(5.18647 -0.000115391 -4.38477e-05)
(5.19056 -0.000124883 -4.70055e-05)
(5.19499 -0.000142003 2.50214e-05)
(5.19953 -0.000147928 6.62694e-05)
(5.20413 -0.000148901 1.89624e-05)
(5.20838 -0.000142554 -8.0254e-05)
(5.21215 -0.000122304 -9.18698e-05)
(5.21582 -0.000109727 4.21246e-06)
(5.21966 -0.000114614 7.8273e-05)
(5.22404 -0.00014122 5.94999e-05)
(5.22906 -0.000155191 -3.94536e-05)
(5.23259 -0.000175736 -6.89118e-05)
(5.23736 0.00181869 -2.14925e-05)
(5.07842 -0.000115594 -9.18227e-06)
(5.08286 -0.0001281 4.95155e-05)
(5.0881 -0.000172672 5.78561e-05)
(5.09341 -0.000195611 3.38642e-05)
(5.09834 -0.000174116 -1.83972e-05)
(5.10248 -0.000131774 -4.42185e-05)
(5.10603 -9.71962e-05 -2.64595e-06)
(5.11026 -0.000108913 4.59667e-05)
(5.11544 -0.000161182 3.35768e-05)
(5.12079 -0.000191583 -1.85287e-05)
(5.12578 -0.00017289 -5.20223e-05)
(5.12991 -0.000130811 -3.4196e-05)
(5.13345 -9.86415e-05 7.17217e-06)
(5.13759 -0.000112175 1.76343e-05)
(5.14265 -0.000163291 -1.31372e-05)
(5.14782 -0.000189431 -3.66247e-05)
(5.15263 -0.000168989 -1.43711e-05)
(5.1567 -0.000128219 2.59642e-05)
(5.16029 -0.000100117 1.63523e-05)
(5.16443 -0.000113875 -3.48767e-05)
(5.16923 -0.000152829 -4.57992e-05)
(5.17409 -0.000169491 1.17105e-05)
(5.17866 -0.000152601 6.16676e-05)
(5.18272 -0.000128216 4.64744e-05)
(5.1865 -0.000115309 -2.2186e-05)
(5.19057 -0.000123505 -4.73377e-05)
(5.19498 -0.00014146 6.0268e-06)
(5.19955 -0.000149197 6.09904e-05)
(5.20418 -0.000150032 3.02072e-05)
(5.20842 -0.000141863 -7.03245e-05)
(5.21215 -0.000120574 -8.9831e-05)
(5.21579 -0.000108696 -3.21733e-06)
(5.21965 -0.000115812 8.13588e-05)
(5.22407 -0.000143164 6.67774e-05)
(5.22909 -0.000155208 -3.72469e-05)
(5.2326 -0.000174198 -7.10569e-05)
(5.23736 0.00181957 -2.30943e-05)
(5.07837 -0.000114733 7.78264e-06)
(5.08285 -0.000127698 3.25395e-05)
(5.08812 -0.000174092 3.24283e-05)
(5.09343 -0.000197617 1.4317e-05)
(5.09834 -0.00017457 -8.06479e-06)
(5.10248 -0.000130212 -1.15724e-05)
(5.10603 -9.47248e-05 2.07174e-05)
(5.11028 -0.000107746 4.23803e-05)
(5.11546 -0.000162428 1.28973e-05)
(5.12079 -0.000193353 -4.41421e-05)
(5.12577 -0.000172493 -5.59089e-05)
(5.1299 -0.000128896 -1.58358e-05)
(5.13345 -9.76409e-05 3.77203e-05)
(5.13761 -0.00011346 3.56459e-05)
(5.14265 -0.000165284 -2.64287e-05)
(5.14781 -0.000189845 -6.11119e-05)
(5.15261 -0.000167647 -3.11672e-05)
(5.15671 -0.00012694 3.61078e-05)
(5.16032 -0.000100419 3.66007e-05)
(5.16446 -0.000115145 -3.87355e-05)
(5.16924 -0.000153347 -7.41829e-05)
(5.17408 -0.000168593 -2.43289e-05)
(5.17867 -0.000151998 6.18995e-05)
(5.18275 -0.000128595 7.29961e-05)
(5.18653 -0.000115708 -2.35517e-06)
(5.19058 -0.000123242 -5.51079e-05)
(5.19498 -0.000140859 -1.68203e-05)
(5.19955 -0.000148952 5.31003e-05)
(5.2042 -0.000150227 3.68143e-05)
(5.20844 -0.000141818 -6.17544e-05)
(5.21215 -0.000119654 -8.91518e-05)
(5.21579 -0.000108173 -8.96018e-06)
(5.21969 -0.000116693 8.56561e-05)
(5.22412 -0.000144608 7.55531e-05)
(5.22911 -0.000155622 -3.67026e-05)
(5.2326 -0.00017373 -7.5017e-05)
(5.23736 0.00181985 -2.39674e-05)
(5.07831 -0.000116593 3.48013e-05)
(5.08282 -0.000127858 4.27828e-05)
(5.08811 -0.000171258 3.23563e-05)
(5.09343 -0.000193517 1.1211e-06)
(5.09835 -0.000172911 -1.47034e-05)
(5.10248 -0.000132381 -2.20885e-06)
(5.10604 -9.85202e-05 3.31037e-05)
(5.11027 -0.000109288 4.6128e-05)
(5.11546 -0.000160796 3.42129e-06)
(5.12079 -0.000190221 -6.3624e-05)
(5.12576 -0.00017131 -6.74037e-05)
(5.12989 -0.000131032 -1.38793e-06)
(5.13346 -0.000101118 6.35354e-05)
(5.13762 -0.000115025 5.43222e-05)
(5.14266 -0.000162889 -3.02587e-05)
(5.14779 -0.000185992 -7.71184e-05)
(5.15259 -0.000166328 -3.91729e-05)
(5.1567 -0.000129394 4.3832e-05)
(5.16034 -0.00010399 4.55134e-05)
(5.16448 -0.000115383 -4.95131e-05)
(5.16922 -0.000149985 -9.21414e-05)
(5.17406 -0.000165291 -4.35163e-05)
(5.17867 -0.00015273 6.53951e-05)
(5.18278 -0.00013208 8.38418e-05)
(5.18656 -0.000117551 2.23029e-06)
(5.19057 -0.000121662 -6.37658e-05)
(5.19496 -0.000138708 -2.43401e-05)
(5.19956 -0.000149255 5.68037e-05)
(5.20424 -0.000152127 4.48174e-05)
(5.20847 -0.000142225 -6.41804e-05)
(5.21213 -0.000117556 -9.52569e-05)
(5.21575 -0.000106114 -8.03448e-06)
(5.21968 -0.000117807 9.71068e-05)
(5.22415 -0.000147543 8.50588e-05)
(5.22914 -0.000156117 -4.13774e-05)
(5.23259 -0.00017124 -8.01731e-05)
(5.23734 0.00182112 -2.35122e-05)
(5.07828 -0.000113503 3.93785e-05)
(5.08282 -0.00012808 4.06328e-05)
(5.08813 -0.000173945 2.46729e-05)
(5.09343 -0.000195422 -7.38183e-06)
(5.09832 -0.000171814 -1.98753e-05)
(5.10246 -0.000129505 -8.23548e-07)
(5.10603 -9.68487e-05 3.83398e-05)
(5.11029 -0.000110191 5.29467e-05)
(5.11548 -0.000162939 5.27573e-06)
(5.1208 -0.000190965 -6.7966e-05)
(5.12573 -0.000169969 -7.29168e-05)
(5.12986 -0.000129616 5.15738e-07)
(5.13344 -0.000102058 7.81833e-05)
(5.13762 -0.000117085 7.29944e-05)
(5.14266 -0.000163097 -2.49137e-05)
(5.14777 -0.000184359 -8.61529e-05)
(5.15256 -0.000165136 -5.30667e-05)
(5.15668 -0.000130683 4.29941e-05)
(5.16036 -0.00010609 5.61217e-05)
(5.1645 -0.000115049 -3.79595e-05)
(5.16922 -0.000147387 -9.55368e-05)
(5.17404 -0.0001639 -6.0281e-05)
(5.17867 -0.000155197 5.65075e-05)
(5.18279 -0.000134713 8.47323e-05)
(5.18657 -0.000116322 1.15124e-05)
(5.19057 -0.000117572 -6.55331e-05)
(5.19494 -0.00013677 -3.70265e-05)
(5.19954 -0.000151814 4.61947e-05)
(5.20424 -0.000155461 4.36291e-05)
(5.20846 -0.000141542 -5.39178e-05)
(5.21211 -0.000113423 -8.69519e-05)
(5.21574 -0.000103882 -5.11945e-06)
(5.2197 -0.000120976 9.47701e-05)
(5.22418 -0.000151811 8.15722e-05)
(5.22914 -0.000156229 -3.99518e-05)
(5.23257 -0.000168165 -7.53187e-05)
(5.23733 0.00182225 -1.78069e-05)
(5.07828 -0.00011439 3.50877e-05)
(5.08281 -0.000127047 3.33827e-05)
(5.08813 -0.000170769 1.07634e-05)
(5.09343 -0.000191746 -1.85648e-05)
(5.09833 -0.000170036 -2.32182e-05)
(5.10247 -0.000130863 4.17616e-06)
(5.10604 -0.000100196 4.04386e-05)
(5.1103 -0.000112655 5.57549e-05)
(5.11549 -0.000162849 5.73311e-06)
(5.12079 -0.000188791 -7.08327e-05)
(5.12571 -0.000168222 -7.78293e-05)
(5.12984 -0.00013074 -5.93663e-06)
(5.13344 -0.000105691 8.33272e-05)
(5.13764 -0.000119729 8.67253e-05)
(5.14267 -0.0001619 -8.45732e-06)
(5.14775 -0.000180112 -8.6857e-05)
(5.15252 -0.0001626 -6.43743e-05)
(5.15667 -0.000132904 3.48393e-05)
(5.16037 -0.000110357 6.15349e-05)
(5.16451 -0.000116615 -1.09747e-05)
(5.16919 -0.000144102 -8.91678e-05)
(5.17399 -0.000159973 -7.46564e-05)
(5.17864 -0.000155573 3.26982e-05)
(5.18282 -0.000138838 7.89987e-05)
(5.1866 -0.000118709 2.76013e-05)
(5.19056 -0.000115592 -5.32836e-05)
(5.19491 -0.000133845 -4.31902e-05)
(5.19954 -0.000151964 2.7115e-05)
(5.20427 -0.000157913 3.70297e-05)
(5.20848 -0.000142298 -3.51737e-05)
(5.21208 -0.000111032 -6.91351e-05)
(5.21569 -0.000101783 -1.69297e-06)
(5.21968 -0.000122565 8.0204e-05)
(5.22421 -0.000155051 6.44596e-05)
(5.22915 -0.000156413 -3.7569e-05)
(5.23254 -0.000164988 -6.49292e-05)
(5.23729 0.00182384 -1.23695e-05)
(5.07826 -0.000112349 4.00711e-05)
(5.08282 -0.000127935 4.37366e-05)
(5.08813 -0.0001733 2.07178e-05)
(5.09341 -0.000193181 -1.96808e-05)
(5.09829 -0.000168256 -2.51885e-05)
(5.10245 -0.000127224 3.64863e-06)
(5.10605 -9.84418e-05 3.79858e-05)
(5.11033 -0.000114685 5.21111e-05)
(5.11552 -0.000167359 1.27495e-06)
(5.1208 -0.000191116 -6.94004e-05)
(5.12568 -0.000166182 -7.50832e-05)
(5.12979 -0.000127039 -1.04162e-05)
(5.13342 -0.000105368 7.95421e-05)
(5.13765 -0.000122817 8.63175e-05)
(5.14267 -0.000164646 5.89856e-06)
(5.14774 -0.000179061 -7.54689e-05)
(5.15248 -0.000159319 -6.49417e-05)
(5.15664 -0.000131235 2.10937e-05)
(5.16038 -0.00011251 5.59111e-05)
(5.16453 -0.000119887 8.94963e-06)
(5.1692 -0.000144515 -6.87144e-05)
(5.17398 -0.000158116 -7.1749e-05)
(5.17862 -0.000154293 3.79252e-06)
(5.18281 -0.000139649 5.64772e-05)
(5.18659 -0.000119358 2.45107e-05)
(5.19055 -0.000114286 -3.72297e-05)
(5.19488 -0.000131831 -3.64052e-05)
(5.19951 -0.000151505 1.09325e-05)
(5.20425 -0.000159532 2.09867e-05)
(5.20847 -0.000143622 -2.33596e-05)
(5.21206 -0.000109952 -4.21791e-05)
(5.21568 -0.000100069 1.08795e-05)
(5.21969 -0.000123227 6.0045e-05)
(5.22421 -0.00015757 3.43219e-05)
(5.22914 -0.000157452 -3.68913e-05)
(5.23252 -0.00016344 -4.40262e-05)
(5.23727 0.0018245 5.54979e-07)
(5.0782 -0.000112465 6.04523e-05)
(5.08282 -0.000129755 3.61351e-05)
(5.08811 -0.000172919 -2.73865e-06)
(5.09339 -0.000191964 -1.91626e-05)
(5.0983 -0.000167901 -1.2949e-06)
(5.10246 -0.000128356 2.16023e-05)
(5.10606 -0.000100831 3.67587e-05)
(5.11032 -0.000116368 2.83805e-05)
(5.11551 -0.000167374 -3.0211e-05)
(5.12078 -0.000189813 -6.74233e-05)
(5.12564 -0.000165158 -5.93652e-05)
(5.12977 -0.000127682 5.88001e-06)
(5.13342 -0.000107275 7.26368e-05)
(5.13766 -0.0001242 7.10125e-05)
(5.14268 -0.000164047 3.29755e-06)
(5.1477 -0.000176657 -5.72859e-05)
(5.15243 -0.000157465 -4.26101e-05)
(5.15662 -0.000131668 2.35749e-05)
(5.16039 -0.000114668 4.78483e-05)
(5.16455 -0.000121561 8.90602e-06)
(5.16918 -0.000144287 -5.51549e-05)
(5.17393 -0.000156849 -6.03185e-05)
(5.17859 -0.000153674 -7.78812e-06)
(5.18281 -0.000140543 3.76319e-05)
(5.18661 -0.000120243 2.31159e-05)
(5.19054 -0.000114028 -2.03824e-05)
(5.19485 -0.000130878 -2.94904e-05)
(5.19949 -0.000150968 -5.99859e-06)
(5.20425 -0.000159674 5.38308e-06)
(5.20847 -0.000143885 -7.70847e-06)
(5.21204 -0.000110073 -7.70465e-06)
(5.21565 -0.00010019 2.21619e-05)
(5.21968 -0.000123419 3.24418e-05)
(5.22422 -0.00015744 -6.35757e-06)
(5.22914 -0.00015659 -4.16721e-05)
(5.2325 -0.000163278 -2.0655e-05)
(5.23724 0.00182431 1.25966e-05)
(5.07822 -0.000112818 9.633e-05)
(5.08283 -0.000127015 5.81612e-05)
(5.08812 -0.000169374 1.11643e-05)
(5.09337 -0.000188698 -8.50669e-06)
(5.09825 -0.000166352 1.67414e-06)
(5.10242 -0.00012913 1.57174e-05)
(5.10605 -0.000102671 2.44329e-05)
(5.11033 -0.000118087 1.13905e-05)
(5.11553 -0.000168187 -3.43057e-05)
(5.12079 -0.000189776 -5.60567e-05)
(5.12562 -0.000164512 -4.55574e-05)
(5.12973 -0.000127247 4.19383e-06)
(5.13338 -0.00010796 5.78155e-05)
(5.13764 -0.000125347 5.89762e-05)
(5.14267 -0.000164091 1.58652e-05)
(5.1477 -0.000175553 -3.09377e-05)
(5.15241 -0.000155988 -2.59452e-05)
(5.15659 -0.000131815 1.50317e-05)
(5.16037 -0.000116683 3.45244e-05)
(5.16454 -0.000123449 9.98523e-06)
(5.16917 -0.00014395 -3.82422e-05)
(5.17392 -0.000154866 -4.83671e-05)
(5.17858 -0.000152456 -2.37322e-05)
(5.18279 -0.000140923 7.46794e-06)
(5.18659 -0.000121196 8.1747e-06)
(5.19052 -0.000114144 -9.39876e-06)
(5.19482 -0.000129689 -1.54995e-05)
(5.19946 -0.000149701 -9.34587e-06)
(5.20423 -0.000159361 -4.42583e-06)
(5.20845 -0.000144353 -1.02415e-06)
(5.21202 -0.000110591 1.24039e-05)
(5.21563 -0.00010054 2.83088e-05)
(5.21967 -0.000123487 1.6206e-05)
(5.22421 -0.000157404 -2.8415e-05)
(5.22912 -0.00015606 -4.21679e-05)
(5.23247 -0.000162739 -7.39129e-06)
(5.23723 0.00182425 1.67286e-05)
(5.07822 -0.000113553 8.82547e-05)
(5.08285 -0.00012581 5.49319e-05)
(5.08813 -0.000167125 1.59579e-05)
(5.09337 -0.000187356 -3.86613e-07)
(5.09824 -0.000166356 4.89911e-06)
(5.10242 -0.000129953 1.20179e-05)
(5.10605 -0.000103574 1.04137e-05)
(5.11031 -0.000118689 -1.21152e-05)
(5.1155 -0.00016839 -4.24151e-05)
(5.12075 -0.000190061 -4.36581e-05)
(5.12559 -0.000164704 -2.552e-05)
(5.12972 -0.000127319 8.97723e-06)
(5.13337 -0.00010788 3.67841e-05)
(5.13764 -0.000125669 3.82472e-05)
(5.14266 -0.000164323 2.20267e-05)
(5.14767 -0.000175168 6.44159e-06)
(5.15239 -0.000155062 3.3019e-06)
(5.15658 -0.000131173 6.27861e-06)
(5.16037 -0.000117185 5.39754e-06)
(5.16454 -0.000124678 -2.36461e-06)
(5.16916 -0.000144775 -1.24719e-05)
(5.17389 -0.000154415 -1.79134e-05)
(5.17855 -0.000151896 -2.10897e-05)
(5.18278 -0.000140715 -2.32986e-05)
(5.18658 -0.000121318 -1.65698e-05)
(5.19051 -0.000114128 -2.06866e-06)
(5.19481 -0.000129226 5.05922e-06)
(5.19945 -0.000149224 -4.7258e-06)
(5.20422 -0.000159377 -1.144e-05)
(5.20844 -0.000144767 4.37183e-06)
(5.21201 -0.000110885 3.11998e-05)
(5.21562 -0.000100607 3.68358e-05)
(5.21967 -0.000123146 -1.90964e-06)
(5.2242 -0.000156796 -5.33474e-05)
(5.2291 -0.000155652 -4.84351e-05)
(5.23246 -0.000163586 9.3327e-06)
(5.23722 0.00182364 2.14496e-05)
(5.07824 -0.000113643 5.00962e-05)
(5.08287 -0.000123871 3.44706e-05)
(5.08815 -0.000164202 7.05947e-06)
(5.09337 -0.000184989 -8.17994e-06)
(5.09823 -0.000165437 -2.96876e-06)
(5.1024 -0.000130486 3.25157e-06)
(5.10604 -0.00010494 -1.04502e-06)
(5.11032 -0.000119806 -2.07453e-05)
(5.11553 -0.000168329 -3.5944e-05)
(5.12078 -0.000189887 -2.80714e-05)
(5.1256 -0.000165121 -4.98087e-06)
(5.1297 -0.000127977 1.578e-05)
(5.13335 -0.000107958 2.34486e-05)
(5.13762 -0.000124989 2.15177e-05)
(5.14266 -0.000163097 2.76533e-05)
(5.14768 -0.000174879 3.55784e-05)
(5.15239 -0.000155961 2.65878e-05)
(5.15656 -0.000131809 -1.45653e-06)
(5.16033 -0.000116591 -2.36062e-05)
(5.1645 -0.000123139 -1.75749e-05)
(5.16913 -0.000143786 2.44788e-06)
(5.17389 -0.000154873 1.89555e-06)
(5.17855 -0.000152859 -3.06884e-05)
(5.18276 -0.000141361 -5.24441e-05)
(5.18655 -0.000121083 -3.37943e-05)
(5.19047 -0.00011371 1.32618e-05)
(5.19478 -0.000129014 3.16233e-05)
(5.19943 -0.000148996 2.3533e-06)
(5.20419 -0.000158781 -2.008e-05)
(5.20841 -0.000144417 3.4544e-06)
(5.21199 -0.000111667 4.50184e-05)
(5.21561 -0.000101794 4.91708e-05)
(5.21966 -0.000123446 -1.12629e-05)
(5.22419 -0.000155477 -6.85891e-05)
(5.22908 -0.000154003 -5.27165e-05)
(5.23244 -0.000163851 1.6435e-05)
(5.23721 0.00182325 2.31994e-05)
(5.07822 -0.000115412 -4.15981e-06)
(5.08287 -0.000125172 1.35087e-05)
(5.08814 -0.000164083 1.14428e-05)
(5.09335 -0.000183514 -8.41021e-08)
(5.09822 -0.000163874 -8.41293e-06)
(5.10241 -0.000129727 -1.47433e-05)
(5.10605 -0.000105209 -2.38788e-05)
(5.11032 -0.000120489 -3.11023e-05)
(5.11551 -0.000169336 -2.52426e-05)
(5.12075 -0.000190633 -1.27517e-06)
(5.12558 -0.000165479 1.68574e-05)
(5.1297 -0.000128139 1.26565e-05)
(5.13334 -0.00010797 -1.30708e-06)
(5.13761 -0.000124888 9.84606e-07)
(5.14264 -0.000162923 3.95355e-05)
(5.14766 -0.00017462 6.50414e-05)
(5.15238 -0.000155616 4.86414e-05)
(5.15656 -0.000131449 -1.63343e-05)
(5.16032 -0.000116266 -5.41699e-05)
(5.16448 -0.00012321 -2.30929e-05)
(5.16912 -0.000144566 2.92274e-05)
(5.17388 -0.000155744 3.55655e-05)
(5.17854 -0.000152669 -3.04078e-05)
(5.18273 -0.000139874 -8.02738e-05)
(5.18651 -0.000119817 -6.02565e-05)
(5.19045 -0.000113855 2.02813e-05)
(5.19479 -0.000130532 5.30692e-05)
(5.19944 -0.000150075 1.28236e-05)
(5.20418 -0.000158304 -2.61907e-05)
(5.20838 -0.000143093 1.67483e-06)
(5.21197 -0.000111463 5.41738e-05)
(5.21562 -0.000102946 5.5825e-05)
(5.21968 -0.000124124 -2.08916e-05)
(5.22419 -0.000154354 -7.6272e-05)
(5.22905 -0.000152715 -4.90965e-05)
(5.23243 -0.00016477 2.37781e-05)
(5.23722 0.00182256 2.09037e-05)
(5.07821 -0.000114064 -2.63484e-05)
(5.08286 -0.000124324 -1.50315e-07)
(5.08814 -0.000164246 6.24318e-06)
(5.09335 -0.000184092 -4.22778e-06)
(5.0982 -0.000164207 -1.29429e-05)
(5.10239 -0.000129702 -1.75488e-05)
(5.10604 -0.000104778 -2.5984e-05)
(5.11032 -0.000119474 -3.18003e-05)
(5.11552 -0.000169179 -2.07345e-05)
(5.12076 -0.00019161 1.09478e-05)
(5.12559 -0.000167393 2.87644e-05)
(5.1297 -0.000129506 1.28586e-05)
(5.13333 -0.000107145 -1.43914e-05)
(5.13759 -0.000122487 -1.19752e-05)
(5.14262 -0.000161725 4.61849e-05)
(5.14767 -0.000176266 8.22598e-05)
(5.1524 -0.000158625 5.72793e-05)
(5.15655 -0.000132541 -3.5517e-05)
(5.16029 -0.000113709 -7.69963e-05)
(5.16444 -0.000119581 -3.28948e-05)
(5.1691 -0.000143946 4.28659e-05)
(5.17388 -0.000158575 4.5814e-05)
(5.17854 -0.000155561 -4.56482e-05)
(5.18272 -0.000139656 -9.71365e-05)
(5.18649 -0.00011771 -5.99184e-05)
(5.19043 -0.000112693 4.64826e-05)
(5.19479 -0.000131776 7.06182e-05)
(5.19944 -0.000151575 1.12732e-05)
(5.20416 -0.000158093 -3.64627e-05)
(5.20836 -0.000142074 3.43912e-06)
(5.21197 -0.0001116 7.13221e-05)
(5.21562 -0.00010424 6.68139e-05)
(5.21966 -0.0001244 -2.84092e-05)
(5.22417 -0.000152882 -8.22093e-05)
(5.22904 -0.000151213 -4.26281e-05)
(5.23243 -0.000165741 2.99568e-05)
(5.23723 0.00182185 1.95112e-05)
(5.07824 -0.00011528 -3.56713e-05)
(5.08284 -0.000126234 -7.50414e-06)
(5.08812 -0.000165445 3.25804e-06)
(5.09334 -0.000183332 -5.21663e-06)
(5.0982 -0.000162052 -1.66197e-05)
(5.10238 -0.000128298 -2.92019e-05)
(5.10604 -0.000105399 -3.92088e-05)
(5.11032 -0.000121254 -3.57569e-05)
(5.1155 -0.000170553 -1.11767e-05)
(5.12074 -0.000191636 3.49616e-05)
(5.12558 -0.000166832 4.63474e-05)
(5.12969 -0.000129144 1.12564e-05)
(5.13332 -0.000106912 -2.93212e-05)
(5.13758 -0.000122236 -2.56158e-05)
(5.14261 -0.000161805 5.24333e-05)
(5.14767 -0.000177305 9.4537e-05)
(5.15242 -0.000159459 6.01307e-05)
(5.15656 -0.000131847 -5.41342e-05)
(5.16027 -0.000111563 -9.06741e-05)
(5.16442 -0.000118533 -2.79211e-05)
(5.1691 -0.000145741 5.7636e-05)
(5.17391 -0.000161304 5.02606e-05)
(5.17856 -0.000155297 -5.75855e-05)
(5.18269 -0.000135975 -0.000106054)
(5.18644 -0.000114853 -5.0041e-05)
(5.19042 -0.000114013 6.73812e-05)
(5.19481 -0.000135683 7.98292e-05)
(5.19946 -0.000153959 -5.11078e-06)
(5.20414 -0.000156341 -4.63868e-05)
(5.20831 -0.000138846 1.56026e-05)
(5.21195 -0.000111195 8.98382e-05)
(5.21566 -0.000106577 6.66655e-05)
(5.21971 -0.000125991 -4.35978e-05)
(5.22416 -0.000151995 -8.36359e-05)
(5.22901 -0.00015005 -2.46334e-05)
(5.23242 -0.000166095 4.2969e-05)
(5.23724 0.00182145 1.54743e-05)
(5.07823 -0.000113011 -2.54428e-05)
(5.08283 -0.000125427 2.00578e-06)
(5.08811 -0.000166051 5.06396e-06)
(5.09332 -0.000185312 -9.29994e-06)
(5.09818 -0.000164316 -1.86809e-05)
(5.10238 -0.000129048 -2.59981e-05)
(5.10605 -0.000103408 -3.51171e-05)
(5.11033 -0.00011825 -3.25774e-05)
(5.11552 -0.000169078 -3.76081e-06)
(5.12075 -0.000193336 4.53377e-05)
(5.12561 -0.000170764 5.32316e-05)
(5.12973 -0.000131443 5.69026e-06)
(5.13333 -0.000104725 -3.84537e-05)
(5.13757 -0.000117892 -3.07379e-05)
(5.1426 -0.000160114 5.63755e-05)
(5.14769 -0.000180095 9.54896e-05)
(5.15245 -0.000163187 4.88908e-05)
(5.15658 -0.000131913 -7.31118e-05)
(5.16026 -0.000107519 -9.70823e-05)
(5.16439 -0.000114891 -1.76749e-05)
(5.16911 -0.000146799 6.6257e-05)
(5.17392 -0.000165004 4.12873e-05)
(5.17855 -0.000157032 -7.24983e-05)
(5.18268 -0.000134584 -0.000105835)
(5.18643 -0.00011295 -2.33697e-05)
(5.19043 -0.000114341 9.05445e-05)
(5.19484 -0.00013721 7.86473e-05)
(5.19948 -0.000154548 -3.07679e-05)
(5.20413 -0.000155135 -5.87262e-05)
(5.2083 -0.000138002 3.72086e-05)
(5.21197 -0.000112769 0.000109441)
(5.21566 -0.000108232 6.74621e-05)
(5.21968 -0.000125005 -6.08917e-05)
(5.22414 -0.000149716 -9.18193e-05)
(5.229 -0.000149382 -3.77251e-06)
(5.23243 -0.000168361 6.08866e-05)
(5.23725 0.0018204 1.63652e-05)
(5.07821 -0.000114786 1.04696e-05)
(5.08285 -0.000128993 1.39032e-05)
(5.0881 -0.00016805 1.39808e-08)
(5.09333 -0.00018545 -1.68605e-05)
(5.09821 -0.000162853 -1.93917e-05)
(5.10241 -0.000127488 -1.86185e-05)
(5.10607 -0.000103301 -2.55616e-05)
(5.11034 -0.00011942 -2.62117e-05)
(5.11551 -0.000170614 3.26354e-08)
(5.12075 -0.000194748 4.56328e-05)
(5.12562 -0.000171368 5.18367e-05)
(5.12975 -0.000130692 4.72354e-06)
(5.13334 -0.000102704 -3.73777e-05)
(5.13757 -0.000116275 -2.64575e-05)
(5.14261 -0.000160804 5.40708e-05)
(5.14772 -0.000182427 8.38231e-05)
(5.15251 -0.000164392 2.74595e-05)
(5.15661 -0.000129765 -8.0498e-05)
(5.16025 -0.000104793 -8.8812e-05)
(5.16438 -0.000114613 6.79793e-06)
(5.16913 -0.000149952 6.68421e-05)
(5.17398 -0.000167823 1.34938e-05)
(5.17859 -0.000155173 -8.71501e-05)
(5.18266 -0.000129903 -9.6633e-05)
(5.1864 -0.000110735 2.43719e-05)
(5.19045 -0.000117442 0.000108235)
(5.19489 -0.000141661 6.1769e-05)
(5.1995 -0.000155353 -6.45358e-05)
(5.2041 -0.000152119 -6.993e-05)
(5.20827 -0.000135511 6.8404e-05)
(5.21198 -0.000113837 0.000130152)
(5.21573 -0.000111192 5.69916e-05)
(5.21973 -0.000125546 -8.46469e-05)
(5.22412 -0.000147778 -9.69245e-05)
(5.22897 -0.000148651 2.49569e-05)
(5.23244 -0.00017 7.69736e-05)
(5.23728 0.00181953 1.67366e-05)
(5.07823 -0.00011373 4.67064e-05)
(5.08287 -0.000126536 2.62398e-05)
(5.08814 -0.000166344 -5.13524e-06)
(5.09334 -0.000185122 -2.41753e-05)
(5.0982 -0.000164137 -2.02135e-05)
(5.10241 -0.000128923 -1.27471e-05)
(5.10608 -0.000102705 -1.51198e-05)
(5.11035 -0.000116987 -1.82458e-05)
(5.11553 -0.000169076 3.23275e-06)
(5.12077 -0.000196309 4.27657e-05)
(5.12566 -0.000174625 4.88939e-05)
(5.12978 -0.000132095 1.09486e-05)
(5.13334 -0.000100198 -2.93931e-05)
(5.13756 -0.00011234 -1.93665e-05)
(5.1426 -0.000159593 4.02564e-05)
(5.14774 -0.000184398 6.11684e-05)
(5.15254 -0.000166296 2.14864e-06)
(5.15664 -0.000128911 -7.51449e-05)
(5.16026 -0.000102601 -6.51077e-05)
(5.16438 -0.000114316 2.59025e-05)
(5.16916 -0.000152453 5.88939e-05)
(5.17402 -0.000169885 -1.31254e-05)
(5.1786 -0.000153681 -8.98978e-05)
(5.18266 -0.000127701 -6.95264e-05)
(5.18641 -0.000111631 5.78168e-05)
(5.19047 -0.000120802 0.000108228)
(5.19493 -0.000143073 2.87599e-05)
(5.19953 -0.000152574 -8.62518e-05)
(5.2041 -0.000148742 -6.15962e-05)
(5.20827 -0.000136618 9.08716e-05)
(5.21201 -0.000118647 0.000135499)
(5.21575 -0.000113534 3.22076e-05)
(5.21972 -0.000122094 -0.000103779)
(5.22411 -0.000143343 -9.28363e-05)
(5.22898 -0.000149295 4.9301e-05)
(5.23245 -0.000174415 8.59248e-05)
(5.23729 0.00181801 1.25242e-05)
(5.07826 -0.000116423 5.2075e-05)
(5.08291 -0.000128026 2.87386e-05)
(5.08816 -0.000165705 -1.01949e-05)
(5.09335 -0.000182966 -2.96841e-05)
(5.09821 -0.000161797 -1.91704e-05)
(5.10242 -0.000127873 6.67653e-07)
(5.1061 -0.000103591 2.74308e-06)
(5.11036 -0.000118956 -6.71907e-06)
(5.11553 -0.000170643 7.40946e-07)
(5.12076 -0.000196541 2.89271e-05)
(5.12566 -0.00017388 3.72305e-05)
(5.12979 -0.000131036 1.59763e-05)
(5.13335 -9.94237e-05 -1.44581e-05)
(5.13755 -0.000112453 -8.24351e-06)
(5.1426 -0.000160117 2.77395e-05)
(5.14776 -0.000184264 3.52141e-05)
(5.15257 -0.000164807 -1.707e-05)
(5.15664 -0.000127205 -6.26583e-05)
(5.16025 -0.000102993 -3.84414e-05)
(5.16438 -0.000117422 3.7694e-05)
(5.16919 -0.00015523 5.14193e-05)
(5.17405 -0.000168978 -2.75731e-05)
(5.1786 -0.000149227 -8.31541e-05)
(5.18264 -0.00012463 -4.56299e-05)
(5.18642 -0.000113986 7.19628e-05)
(5.19053 -0.000125258 0.000100517)
(5.19499 -0.000144018 6.19238e-06)
(5.19952 -0.000148718 -9.48378e-05)
(5.20405 -0.000145643 -5.87984e-05)
(5.20826 -0.000138813 9.21527e-05)
(5.21207 -0.00012293 0.00012839)
(5.21583 -0.000114323 1.75774e-05)
(5.21974 -0.000118119 -0.000105034)
(5.22406 -0.000140088 -8.52098e-05)
(5.22896 -0.000151804 5.54457e-05)
(5.23251 -0.000178229 8.64616e-05)
(5.23734 0.00181667 1.37103e-05)
(5.07826 -0.000115672 2.97181e-05)
(5.08292 -0.000126441 9.67581e-06)
(5.08817 -0.000164501 -2.25936e-05)
(5.09335 -0.000183034 -3.39742e-05)
(5.09821 -0.000163451 -2.02623e-05)
(5.10242 -0.000129613 4.47212e-06)
(5.1061 -0.000103722 1.06643e-05)
(5.11035 -0.000117293 -1.50413e-06)
(5.11552 -0.000168845 -1.25635e-06)
(5.12076 -0.000196307 2.09707e-05)
(5.12567 -0.000175338 2.97114e-05)
(5.1298 -0.000132009 1.82285e-05)
(5.13334 -9.81609e-05 -5.02088e-06)
(5.13754 -0.000109805 -7.52448e-06)
(5.14259 -0.000158559 1.17891e-05)
(5.14777 -0.000184721 1.24507e-05)
(5.15258 -0.000165563 -2.32604e-05)
(5.15664 -0.000126975 -4.31962e-05)
(5.16024 -0.000102184 -1.31628e-05)
(5.16438 -0.000118121 4.32424e-05)
(5.16921 -0.000157623 4.54268e-05)
(5.17408 -0.000170271 -2.85648e-05)
(5.1786 -0.000148139 -6.71712e-05)
(5.18262 -0.000122962 -2.12532e-05)
(5.18641 -0.000114992 7.06869e-05)
(5.19054 -0.000127569 8.65034e-05)
(5.19501 -0.000144385 -7.49044e-06)
(5.19954 -0.000146013 -9.07943e-05)
(5.20405 -0.000143112 -5.30223e-05)
(5.20826 -0.000139998 7.91448e-05)
(5.21209 -0.000127018 0.000109567)
(5.21585 -0.000116445 7.24753e-06)
(5.21973 -0.000115177 -9.33337e-05)
(5.22405 -0.000136034 -7.39911e-05)
(5.22897 -0.000151727 4.55802e-05)
(5.23252 -0.000181449 7.52506e-05)
(5.23735 0.00181565 1.49873e-05)
(5.07828 -0.000118023 -7.14157e-06)
(5.08294 -0.000129528 -2.4107e-05)
(5.08817 -0.000165781 -3.79674e-05)
(5.09334 -0.000181655 -3.45876e-05)
(5.0982 -0.000160929 -1.24125e-05)
(5.10242 -0.000128327 1.70927e-05)
(5.10611 -0.000104675 2.09607e-05)
(5.11037 -0.000119441 5.79388e-06)
(5.11553 -0.000169953 -2.36528e-06)
(5.12076 -0.000195414 1.00011e-05)
(5.12568 -0.000173668 2.29117e-05)
(5.12981 -0.000131 2.03682e-05)
(5.13335 -9.83173e-05 6.00602e-06)
(5.13754 -0.000110334 -3.79197e-06)
(5.1426 -0.000158266 -3.29727e-06)
(5.14778 -0.00018357 -9.82856e-06)
(5.1526 -0.00016412 -2.59069e-05)
(5.15665 -0.00012667 -2.41454e-05)
(5.16023 -0.000103617 8.01399e-06)
(5.16438 -0.00012031 4.29937e-05)