/*--------------------------------*- C++ -*----------------------------------*\
  =========                 |
  \\      /  F ield         | OpenFOAM: The Open Source CFD Toolbox
   \\    /   O peration     | Website:  https://openfoam.org
    \\  /    A nd           | Version:  9
     \\/     M anipulation  |
\*---------------------------------------------------------------------------*/
FoamFile
{
    format      ascii;
    class       volScalarField;
    location    "1100";
    object      k;
}
// * * * * * * * * * * * * * * * * * * * * * * * * * * * * * * * * * * * * * //

dimensions      [0 2 -2 0 0 0 0];

internalField   nonuniform List<scalar> 
329700
(
0.386324
0.547063
0.484868
0.445027
0.450773
0.473264
0.495563
0.51263
0.524552
0.53246
0.537489
0.540626
0.54261
0.54392
0.544846
0.545574
0.546199
0.546713
0.547106
0.5474
0.547644
0.547887
0.548183
0.548552
0.54896
0.54936
0.549736
0.550108
0.550506
0.550942
0.551409
0.551903
0.552427
0.552993
0.553593
0.554207
0.55482
0.555428
0.556037
0.556655
0.557279
0.557914
0.558561
0.559224
0.559908
0.560613
0.56133
0.562051
0.56277
0.563487
0.564211
0.564945
0.565689
0.566443
0.567207
0.567981
0.568769
0.569574
0.570391
0.571215
0.572041
0.572868
0.573695
0.574524
0.575358
0.576195
0.577034
0.577882
0.578742
0.579612
0.580491
0.581373
0.582253
0.583138
0.584024
0.584914
0.585814
0.586717
0.587627
0.588529
0.589421
0.590305
0.591203
0.592139
0.593103
0.59405
0.59495
0.59582
0.596716
0.597671
0.598674
0.599636
0.600524
0.601396
0.602305
0.603277
0.604283
0.605239
0.606132
0.607028
0.607971
0.608953
0.609938
0.610882
0.61179
0.612712
0.613658
0.61461
0.615559
0.616501
0.617452
0.6184
0.619321
0.62023
0.621157
0.622135
0.623155
0.624117
0.624999
0.625869
0.626787
0.627765
0.62878
0.629737
0.630607
0.63147
0.632379
0.633357
0.634373
0.635326
0.636182
0.637054
0.637978
0.638943
0.639917
0.640831
0.641701
0.642602
0.643544
0.644476
0.645374
0.646258
0.647154
0.648076
0.649008
0.649912
0.65079
0.65168
0.652589
0.653498
0.654393
0.655278
0.656152
0.657023
0.657964
0.658716
0.65996
0.386548
0.547399
0.485049
0.445047
0.450738
0.473246
0.495573
0.512657
0.524581
0.532492
0.537526
0.540664
0.542647
0.543955
0.544879
0.545607
0.546232
0.546744
0.547134
0.547426
0.547665
0.547905
0.548198
0.548566
0.548974
0.549373
0.549748
0.550119
0.550518
0.550955
0.551423
0.551916
0.552438
0.553002
0.5536
0.554213
0.554826
0.555432
0.556042
0.556659
0.557283
0.557917
0.558563
0.559225
0.559909
0.560613
0.56133
0.562051
0.56277
0.563488
0.564212
0.564945
0.565688
0.566442
0.567207
0.567984
0.568775
0.569581
0.570398
0.571221
0.572045
0.57287
0.573696
0.574524
0.575358
0.576196
0.577038
0.577887
0.578749
0.579619
0.580499
0.58138
0.58226
0.583142
0.584026
0.584915
0.585815
0.586718
0.587627
0.588527
0.589417
0.590304
0.591206
0.592143
0.593106
0.594052
0.594954
0.595827
0.596725
0.597681
0.598681
0.599638
0.600525
0.601398
0.60231
0.603284
0.604288
0.605242
0.606134
0.607032
0.607975
0.608955
0.609938
0.61088
0.611788
0.61271
0.613655
0.614607
0.615558
0.616502
0.617453
0.6184
0.619319
0.620229
0.621161
0.622141
0.623156
0.624115
0.625006
0.625873
0.62679
0.627767
0.628781
0.629738
0.630607
0.631468
0.632378
0.633357
0.634371
0.635325
0.636184
0.637056
0.637978
0.638943
0.639919
0.640835
0.641706
0.642604
0.643539
0.644471
0.645376
0.646263
0.647156
0.648075
0.649006
0.649911
0.650793
0.651681
0.652584
0.653493
0.654393
0.655279
0.65615
0.657018
0.657957
0.658712
0.659959
0.386319
0.547027
0.484823
0.444979
0.450734
0.47324
0.495547
0.51262
0.524543
0.532449
0.537478
0.540612
0.542595
0.543904
0.54483
0.545559
0.546185
0.546699
0.547091
0.547384
0.547626
0.547869
0.548166
0.548536
0.548945
0.549344
0.54972
0.550094
0.550495
0.550933
0.551401
0.551894
0.552418
0.552982
0.55358
0.554194
0.554807
0.555415
0.556026
0.556644
0.557268
0.557903
0.558549
0.559211
0.559895
0.560599
0.561316
0.562037
0.562756
0.563474
0.564198
0.564933
0.565679
0.566434
0.567199
0.567974
0.568762
0.569568
0.570387
0.571214
0.572042
0.572871
0.573698
0.574527
0.575359
0.576197
0.57704
0.577892
0.578753
0.579623
0.580503
0.581385
0.582266
0.583149
0.584031
0.58492
0.585819
0.586723
0.587636
0.588539
0.589428
0.590313
0.591213
0.592149
0.593111
0.594058
0.594961
0.59583
0.596726
0.597687
0.598687
0.599642
0.600527
0.601397
0.602308
0.603285
0.604289
0.605242
0.606136
0.607033
0.607976
0.608958
0.609942
0.610884
0.611793
0.612714
0.613658
0.614611
0.615563
0.616511
0.617462
0.618406
0.619324
0.620232
0.621165
0.62215
0.623164
0.624117
0.624993
0.625872
0.626796
0.627772
0.62879
0.629744
0.630605
0.631469
0.632382
0.633361
0.634379
0.63533
0.636189
0.637059
0.637979
0.638943
0.639921
0.640841
0.641712
0.642605
0.643536
0.64447
0.645381
0.646271
0.64716
0.648073
0.649002
0.649912
0.650798
0.651685
0.652583
0.653489
0.654392
0.655282
0.656154
0.657017
0.657954
0.658713
0.659962
0.386158
0.546672
0.484595
0.444928
0.450756
0.473249
0.495527
0.512579
0.524485
0.532378
0.537402
0.540539
0.542526
0.543841
0.544773
0.545507
0.546135
0.546647
0.547035
0.547324
0.547565
0.54781
0.548111
0.548485
0.548897
0.549297
0.549673
0.550048
0.55045
0.550888
0.551357
0.551852
0.552377
0.552942
0.553542
0.554157
0.554771
0.555381
0.555993
0.556614
0.55724
0.557876
0.558522
0.559185
0.55987
0.560577
0.561296
0.562019
0.56274
0.56346
0.564185
0.564921
0.565666
0.566422
0.56719
0.567969
0.568762
0.569569
0.570387
0.571209
0.572034
0.572859
0.573686
0.574515
0.57535
0.576191
0.577035
0.577887
0.578748
0.579621
0.580503
0.581388
0.582269
0.583152
0.584034
0.584924
0.585824
0.586729
0.587641
0.588543
0.589431
0.590316
0.591218
0.592154
0.59312
0.594067
0.594965
0.595832
0.59673
0.597694
0.598695
0.599648
0.600531
0.6014
0.602311
0.603289
0.604295
0.605248
0.60614
0.607037
0.60798
0.608964
0.60995
0.610892
0.6118
0.612719
0.613662
0.614616
0.61557
0.616521
0.617472
0.618414
0.61933
0.620238
0.621174
0.622161
0.62317
0.624119
0.625003
0.62588
0.626803
0.627777
0.628796
0.629749
0.630607
0.631471
0.632385
0.633364
0.634383
0.635334
0.636196
0.637067
0.637981
0.638942
0.639923
0.640848
0.641721
0.642611
0.643534
0.644467
0.645386
0.64628
0.647165
0.648074
0.649
0.649912
0.650804
0.651691
0.652582
0.653485
0.654392
0.655284
0.656154
0.657016
0.657951
0.658709
0.65996
0.386535
0.547338
0.484984
0.444975
0.45067
0.473192
0.495529
0.512624
0.524554
0.532464
0.537495
0.540629
0.542608
0.543917
0.544844
0.545577
0.546204
0.546716
0.547103
0.54739
0.547628
0.547869
0.548165
0.548533
0.54894
0.549338
0.549712
0.550085
0.550486
0.550923
0.551391
0.551884
0.552408
0.552971
0.553568
0.554181
0.554794
0.555402
0.556013
0.556631
0.557256
0.557891
0.558537
0.559198
0.559881
0.560586
0.561305
0.562029
0.56275
0.563469
0.564194
0.564929
0.565673
0.566429
0.567196
0.567974
0.568766
0.569573
0.57039
0.571212
0.572036
0.572862
0.573689
0.574518
0.575352
0.576191
0.577033
0.577883
0.578743
0.579613
0.580494
0.581379
0.582262
0.583147
0.584029
0.584918
0.585818
0.586725
0.587639
0.588541
0.589431
0.590314
0.591214
0.592151
0.593124
0.594073
0.594963
0.595828
0.596726
0.597693
0.598697
0.599653
0.600535
0.601402
0.602312
0.603292
0.604297
0.605248
0.606138
0.607034
0.607978
0.608963
0.609949
0.610893
0.611803
0.612723
0.613665
0.614618
0.615572
0.616523
0.617475
0.618417
0.619332
0.620239
0.621176
0.622165
0.623172
0.624117
0.625
0.62588
0.626805
0.62778
0.628798
0.629749
0.630605
0.631472
0.63239
0.633369
0.634387
0.635334
0.636197
0.637068
0.637984
0.638945
0.639926
0.640851
0.641724
0.642611
0.643532
0.644469
0.645392
0.646286
0.647166
0.64807
0.648997
0.649917
0.650812
0.651692
0.652575
0.653481
0.654395
0.655293
0.656161
0.657013
0.657945
0.658713
0.659966
0.38616
0.546675
0.484594
0.444922
0.450748
0.473243
0.495523
0.512578
0.524485
0.532378
0.537401
0.540535
0.54252
0.543834
0.544767
0.545506
0.546139
0.546653
0.547039
0.547324
0.547563
0.547809
0.548111
0.548485
0.548896
0.549297
0.549675
0.55005
0.550451
0.550888
0.551357
0.551852
0.552378
0.552944
0.553543
0.554158
0.554772
0.55538
0.555992
0.55661
0.557237
0.557873
0.558521
0.559184
0.559869
0.560575
0.561295
0.562019
0.56274
0.563458
0.564182
0.564917
0.565662
0.566418
0.567186
0.567966
0.568761
0.56957
0.570389
0.571211
0.572035
0.57286
0.573688
0.574519
0.575354
0.576192
0.577032
0.57788
0.578739
0.579609
0.580491
0.581375
0.582258
0.583142
0.584025
0.584914
0.585813
0.586718
0.587629
0.588532
0.589423
0.590307
0.591207
0.592147
0.593123
0.594072
0.594962
0.59583
0.59673
0.597697
0.5987
0.599655
0.600538
0.601405
0.602314
0.603291
0.604295
0.605246
0.606137
0.607034
0.607977
0.60896
0.609946
0.61089
0.611802
0.612723
0.613664
0.614614
0.615568
0.616521
0.617474
0.618415
0.619328
0.620236
0.621176
0.622165
0.62317
0.624112
0.624995
0.625875
0.626807
0.627784
0.6288
0.629748
0.630606
0.631477
0.632397
0.633372
0.634384
0.635331
0.6362
0.637076
0.637988
0.638944
0.639923
0.640852
0.641732
0.642618
0.643531
0.644464
0.645393
0.646292
0.64717
0.64807
0.648994
0.649915
0.650818
0.6517
0.652576
0.653478
0.654394
0.655295
0.656165
0.657016
0.657945
0.65871
0.659965
0.386321
0.547026
0.484815
0.444963
0.450715
0.473224
0.495536
0.512613
0.524539
0.532445
0.537472
0.540604
0.542585
0.543895
0.544823
0.545555
0.546184
0.546698
0.547088
0.547378
0.547619
0.547863
0.548162
0.548532
0.548939
0.549336
0.549712
0.550086
0.550488
0.550926
0.551394
0.551887
0.552411
0.552976
0.553574
0.554187
0.554801
0.555409
0.55602
0.556638
0.557263
0.557898
0.558544
0.559206
0.559889
0.560593
0.561311
0.562033
0.562754
0.563473
0.564197
0.564932
0.565677
0.566433
0.5672
0.567978
0.568769
0.569575
0.570391
0.571212
0.572035
0.572859
0.573685
0.574514
0.575349
0.57619
0.577035
0.577888
0.578748
0.579617
0.580495
0.581375
0.582256
0.583139
0.584021
0.584911
0.58581
0.586715
0.587626
0.588528
0.58942
0.590304
0.591205
0.592144
0.593119
0.594067
0.594957
0.595828
0.596731
0.597695
0.598696
0.599652
0.600538
0.601408
0.602317
0.60329
0.60429
0.605242
0.606136
0.607034
0.607976
0.608956
0.60994
0.610886
0.6118
0.612722
0.613661
0.61461
0.615564
0.616517
0.61747
0.618411
0.619324
0.620233
0.621175
0.622165
0.62317
0.62411
0.624992
0.625874
0.626806
0.627788
0.628802
0.629749
0.630607
0.631479
0.6324
0.633372
0.63438
0.635328
0.636202
0.637082
0.637991
0.638941
0.639917
0.640851
0.641739
0.642626
0.643532
0.644458
0.645391
0.646297
0.647178
0.648071
0.648988
0.649911
0.650821
0.651707
0.652579
0.653474
0.654389
0.655297
0.656172
0.657021
0.657945
0.658709
0.659966
0.386525
0.547329
0.484982
0.444994
0.450695
0.473211
0.495543
0.512632
0.52456
0.53247
0.5375
0.540636
0.542617
0.543925
0.544853
0.545585
0.546213
0.546727
0.547115
0.547404
0.547644
0.547886
0.548182
0.54855
0.548955
0.549353
0.549728
0.550102
0.550502
0.550939
0.551408
0.551902
0.552426
0.55299
0.553587
0.554199
0.554812
0.55542
0.55603
0.556648
0.557273
0.557907
0.558553
0.559215
0.559899
0.560604
0.561322
0.562044
0.562764
0.563482
0.564207
0.564941
0.565685
0.56644
0.567206
0.567983
0.568774
0.569581
0.570398
0.57122
0.572042
0.572864
0.573689
0.574518
0.575352
0.576192
0.577035
0.577886
0.578747
0.579617
0.580496
0.581378
0.58226
0.583145
0.584028
0.584916
0.585813
0.586716
0.587627
0.588529
0.589421
0.590304
0.591202
0.592144
0.59312
0.594068
0.594957
0.595826
0.596728
0.597693
0.598694
0.59965
0.600536
0.601405
0.602315
0.60329
0.60429
0.605242
0.606138
0.607038
0.60798
0.608959
0.609942
0.610888
0.611802
0.612722
0.613658
0.614606
0.615561
0.616517
0.617471
0.61841
0.61932
0.62023
0.621176
0.622169
0.623172
0.624108
0.624993
0.625876
0.626812
0.627795
0.628803
0.629746
0.63061
0.631489
0.632411
0.633375
0.634372
0.635321
0.636207
0.637091
0.637995
0.638937
0.63991
0.64085
0.641748
0.642634
0.64353
0.644453
0.645392
0.646303
0.647183
0.64807
0.648982
0.649908
0.650828
0.651715
0.652578
0.653469
0.654386
0.655298
0.656178
0.657026
0.657942
0.658705
0.659965
0.386197
0.546765
0.484665
0.444957
0.450763
0.473251
0.495537
0.512594
0.52451
0.532414
0.53744
0.540573
0.542554
0.543863
0.544793
0.545529
0.546161
0.546681
0.547077
0.547374
0.547621
0.547868
0.548167
0.548537
0.548944
0.549345
0.549724
0.5501
0.550501
0.550938
0.551406
0.551901
0.552426
0.552991
0.553588
0.554199
0.554811
0.555418
0.556028
0.556645
0.557271
0.557901
0.558547
0.559209
0.559893
0.560599
0.561317
0.562039
0.562759
0.563476
0.564199
0.564932
0.565676
0.566432
0.5672
0.567978
0.56877
0.569577
0.570394
0.571216
0.572038
0.57286
0.573684
0.574512
0.575346
0.576186
0.577032
0.577885
0.578746
0.579616
0.580494
0.581377
0.58226
0.583145
0.584028
0.584916
0.585813
0.586715
0.587624
0.588524
0.589416
0.590301
0.591201
0.592141
0.593115
0.594061
0.594951
0.595824
0.596727
0.597691
0.59869
0.599644
0.60053
0.601403
0.602314
0.603288
0.604286
0.605236
0.606132
0.607034
0.607976
0.608954
0.609936
0.610882
0.611799
0.612721
0.613656
0.614603
0.615559
0.616516
0.617472
0.61841
0.619318
0.620229
0.621178
0.622172
0.623173
0.624105
0.624991
0.625878
0.626815
0.627799
0.628803
0.62974
0.630604
0.631488
0.632415
0.633379
0.634369
0.635313
0.636204
0.637097
0.637999
0.638935
0.639902
0.640845
0.641753
0.642642
0.64353
0.644446
0.645388
0.64631
0.647192
0.64807
0.648971
0.6499
0.650831
0.651725
0.652582
0.653458
0.654373
0.655297
0.656187
0.657034
0.657941
0.658699
0.659961
0.386304
0.547008
0.484822
0.44499
0.450745
0.473246
0.495554
0.512624
0.524544
0.532452
0.53748
0.540616
0.542602
0.543914
0.544845
0.545579
0.546209
0.546725
0.547117
0.547409
0.547651
0.547892
0.548186
0.548552
0.548956
0.549353
0.549726
0.550097
0.550495
0.550928
0.551394
0.551885
0.552408
0.552969
0.553564
0.554173
0.554784
0.555392
0.556004
0.556621
0.557246
0.557879
0.558526
0.559189
0.559873
0.560578
0.561295
0.562017
0.562737
0.563456
0.564183
0.564922
0.565672
0.566431
0.5672
0.567977
0.568768
0.569572
0.570388
0.571209
0.572032
0.572854
0.573678
0.574505
0.575338
0.576176
0.577018
0.57787
0.578732
0.579605
0.580486
0.581372
0.582259
0.583147
0.584031
0.584919
0.585815
0.586716
0.587626
0.588527
0.589419
0.590303
0.591203
0.592143
0.593115
0.59406
0.594948
0.595822
0.596726
0.59769
0.598688
0.59964
0.600527
0.601403
0.602316
0.603289
0.604284
0.605231
0.606129
0.607034
0.607978
0.608954
0.609932
0.610877
0.611796
0.612719
0.613655
0.614601
0.615557
0.616516
0.617471
0.618408
0.619315
0.620228
0.621179
0.622173
0.623171
0.624108
0.624975
0.625869
0.626816
0.627798
0.628796
0.629732
0.630602
0.631492
0.63242
0.633377
0.634359
0.635304
0.636205
0.637102
0.638
0.638929
0.639892
0.64084
0.641758
0.642647
0.643526
0.644439
0.645386
0.646313
0.647195
0.648067
0.648963
0.649895
0.650837
0.651732
0.652579
0.653451
0.654367
0.655296
0.656192
0.657038
0.657936
0.658692
0.659958
0.386553
0.547424
0.485074
0.445058
0.45074
0.473246
0.495575
0.512661
0.524587
0.5325
0.537532
0.540669
0.542652
0.543959
0.544885
0.545615
0.546241
0.546754
0.547142
0.547431
0.54767
0.54791
0.548204
0.548572
0.548976
0.549373
0.549746
0.550118
0.550516
0.550949
0.551415
0.551909
0.552434
0.552999
0.553596
0.554208
0.554819
0.555427
0.556037
0.556654
0.557279
0.557909
0.558556
0.559218
0.559901
0.560606
0.561324
0.562046
0.562767
0.563485
0.564208
0.564944
0.565691
0.566449
0.567215
0.567991
0.568781
0.569585
0.570399
0.571219
0.572041
0.572864
0.573687
0.574515
0.575349
0.576189
0.577034
0.577886
0.578746
0.579615
0.580494
0.581377
0.582262
0.583147
0.58403
0.584917
0.585814
0.586717
0.587627
0.588527
0.589419
0.590304
0.591204
0.592142
0.593114
0.59406
0.594951
0.59583
0.596735
0.597694
0.598688
0.599639
0.600526
0.601406
0.602322
0.60329
0.604282
0.605228
0.606125
0.607033
0.607979
0.608951
0.609927
0.610871
0.611791
0.612719
0.613657
0.614602
0.615557
0.616513
0.617468
0.618407
0.619316
0.62023
0.621181
0.62217
0.623167
0.624189
0.624912
0.625835
0.626815
0.627794
0.628786
0.629726
0.6306
0.631493
0.63242
0.633376
0.634354
0.635297
0.636203
0.637104
0.638001
0.638926
0.639886
0.640836
0.64176
0.64265
0.643523
0.644432
0.645382
0.646315
0.647198
0.648064
0.648954
0.649889
0.65084
0.651739
0.652578
0.653438
0.654356
0.655297
0.656202
0.657044
0.657932
0.658683
0.659954
0.386293
0.547046
0.484869
0.445029
0.450775
0.473267
0.495567
0.512633
0.524556
0.532465
0.537494
0.540629
0.542613
0.543922
0.54485
0.54558
0.546206
0.546721
0.547112
0.547406
0.547649
0.547893
0.54819
0.54856
0.548968
0.549369
0.549745
0.550118
0.550517
0.550952
0.551421
0.551917
0.552444
0.55301
0.553607
0.554219
0.554831
0.555438
0.556049
0.556665
0.557289
0.557921
0.558567
0.55923
0.559913
0.560619
0.561338
0.562061
0.56278
0.563495
0.564217
0.56495
0.565693
0.566446
0.567209
0.567983
0.568775
0.569583
0.570401
0.571223
0.572047
0.572872
0.573697
0.574524
0.575357
0.576195
0.577039
0.577889
0.578749
0.579617
0.580494
0.581377
0.582262
0.583148
0.584032
0.584919
0.585814
0.586714
0.58762
0.588519
0.589413
0.590301
0.591203
0.592138
0.593107
0.594052
0.594947
0.595831
0.596739
0.597693
0.598682
0.599631
0.600521
0.601408
0.602325
0.60329
0.604278
0.605223
0.606124
0.607036
0.607981
0.608949
0.609921
0.610865
0.611788
0.612719
0.613657
0.614602
0.615556
0.61651
0.617465
0.618404
0.619315
0.620232
0.621183
0.622166
0.623161
0.624116
0.624964
0.625852
0.62681
0.627792
0.628783
0.62972
0.630596
0.631493
0.632421
0.633373
0.634348
0.635294
0.636205
0.637107
0.637999
0.638921
0.63988
0.640834
0.641762
0.64265
0.643516
0.644424
0.645381
0.646317
0.647198
0.648057
0.648944
0.649885
0.650846
0.651746
0.652576
0.653431
0.65435
0.655295
0.656207
0.657049
0.65793
0.658679
0.659951
0.386536
0.547374
0.485042
0.445068
0.450771
0.473275
0.495597
0.512675
0.524598
0.532507
0.537536
0.540671
0.542652
0.543958
0.544884
0.545614
0.546239
0.546752
0.547139
0.547428
0.547667
0.547908
0.548203
0.54857
0.548974
0.549371
0.549744
0.550116
0.550514
0.550948
0.551414
0.551909
0.552435
0.553002
0.553599
0.55421
0.55482
0.555427
0.556037
0.556653
0.557277
0.55791
0.558556
0.559217
0.5599
0.560605
0.561324
0.562046
0.562766
0.563484
0.564207
0.564941
0.565686
0.566441
0.567204
0.567979
0.568771
0.569578
0.570396
0.571217
0.572039
0.572861
0.573684
0.574509
0.57534
0.576177
0.577021
0.577873
0.578735
0.579605
0.580484
0.581366
0.582249
0.583132
0.584015
0.584903
0.585799
0.586701
0.587609
0.588511
0.589406
0.590296
0.591199
0.592134
0.5931
0.594044
0.594939
0.595824
0.596732
0.597685
0.598673
0.599624
0.600516
0.601405
0.602324
0.603288
0.604275
0.60522
0.606122
0.607034
0.607979
0.608946
0.609917
0.610863
0.611786
0.612718
0.613656
0.614601
0.615555
0.616509
0.617464
0.618404
0.619314
0.62023
0.621179
0.622161
0.623156
0.624093
0.624974
0.625849
0.626805
0.627788
0.62878
0.629718
0.630596
0.631493
0.632419
0.633371
0.634345
0.635289
0.636204
0.637108
0.637999
0.638918
0.639877
0.640828
0.641759
0.642649
0.643514
0.644421
0.645377
0.646313
0.647194
0.648056
0.648943
0.649885
0.650847
0.651746
0.652573
0.653427
0.654349
0.655299
0.656213
0.657051
0.657927
0.658677
0.659952
0.386291
0.547045
0.484873
0.445036
0.45078
0.473268
0.495568
0.512635
0.524558
0.532468
0.537498
0.540634
0.542617
0.543925
0.544849
0.545575
0.546198
0.546708
0.547096
0.547386
0.547627
0.547867
0.548158
0.548521
0.548923
0.549317
0.54969
0.55006
0.550459
0.550897
0.551369
0.55187
0.5524
0.552968
0.553566
0.554178
0.554791
0.555402
0.556016
0.556635
0.557261
0.557895
0.558541
0.559203
0.559886
0.560592
0.561312
0.562035
0.562755
0.563472
0.564195
0.564929
0.565673
0.566427
0.567192
0.56797
0.568763
0.569571
0.570387
0.571208
0.57203
0.572853
0.573676
0.574502
0.575334
0.576173
0.577019
0.577872
0.578734
0.579605
0.580485
0.581369
0.582253
0.583137
0.584021
0.584908
0.585803
0.586703
0.587609
0.588509
0.589404
0.590293
0.591196
0.592131
0.593098
0.594043
0.594941
0.595826
0.596734
0.597688
0.598677
0.599629
0.600523
0.601412
0.602332
0.603295
0.604281
0.605225
0.606125
0.607036
0.607979
0.608946
0.609917
0.610864
0.611788
0.612721
0.61366
0.614604
0.615557
0.616511
0.617466
0.618406
0.619318
0.620234
0.62118
0.622158
0.62315
0.624088
0.624975
0.625853
0.626805
0.627786
0.628777
0.629715
0.630596
0.631493
0.632417
0.633368
0.634343
0.63529
0.636206
0.637107
0.637994
0.638913
0.639875
0.640829
0.641758
0.642645
0.643507
0.644418
0.645379
0.646317
0.647193
0.648049
0.648938
0.649885
0.650852
0.65175
0.652572
0.653424
0.654347
0.655301
0.656217
0.657054
0.657928
0.658676
0.659952
0.386535
0.547372
0.485038
0.445065
0.45077
0.473276
0.495597
0.512678
0.5246
0.532508
0.537538
0.540672
0.542651
0.543955
0.544875
0.545599
0.546219
0.546726
0.54711
0.547396
0.547634
0.547872
0.548161
0.548521
0.548921
0.549314
0.549684
0.550055
0.550454
0.550892
0.551364
0.551864
0.552395
0.552963
0.55356
0.55417
0.554781
0.555389
0.556002
0.556622
0.557249
0.557887
0.558538
0.559206
0.559896
0.560605
0.561323
0.562041
0.562755
0.563467
0.564186
0.564918
0.565662
0.566417
0.567184
0.567962
0.568755
0.569563
0.570381
0.571201
0.572023
0.572845
0.573667
0.574492
0.575322
0.576161
0.577008
0.577865
0.578731
0.579606
0.580489
0.581375
0.58226
0.583145
0.584028
0.584913
0.585805
0.586703
0.587609
0.588511
0.589407
0.590297
0.5912
0.592136
0.593103
0.594046
0.594942
0.595827
0.596735
0.597692
0.598679
0.599629
0.600522
0.60141
0.60233
0.603294
0.604278
0.605222
0.606123
0.607034
0.607978
0.608947
0.609919
0.610866
0.61179
0.61272
0.613659
0.614605
0.615559
0.616514
0.617467
0.618405
0.619316
0.620232
0.621177
0.622156
0.623148
0.624086
0.624981
0.625852
0.626799
0.627778
0.628769
0.629713
0.630599
0.631497
0.632417
0.633363
0.63434
0.635291
0.636208
0.637107
0.63799
0.638909
0.639874
0.64083
0.641757
0.642641
0.643504
0.644419
0.645382
0.646316
0.647189
0.648046
0.648939
0.649889
0.650854
0.651748
0.652569
0.653423
0.654349
0.655302
0.656217
0.657053
0.657927
0.658677
0.659954
0.386291
0.547044
0.484872
0.445035
0.450781
0.47327
0.495569
0.512637
0.524559
0.532466
0.537496
0.540632
0.542615
0.543923
0.544847
0.545574
0.546196
0.546705
0.547092
0.547382
0.547622
0.547862
0.548152
0.548513
0.548914
0.549308
0.54968
0.55005
0.55045
0.550889
0.551362
0.551862
0.552393
0.552962
0.553559
0.554169
0.55478
0.555389
0.556003
0.556624
0.557253
0.557891
0.558542
0.55921
0.559898
0.560606
0.561325
0.562045
0.562761
0.563474
0.564193
0.564922
0.565663
0.566417
0.567183
0.56796
0.568753
0.569562
0.57038
0.571202
0.572024
0.572845
0.573666
0.57449
0.57532
0.576159
0.577005
0.577861
0.578728
0.579604
0.580488
0.581374
0.582258
0.583144
0.584028
0.584916
0.58581
0.586709
0.587615
0.588516
0.589411
0.590301
0.591204
0.592138
0.593104
0.594048
0.594945
0.595829
0.596737
0.597692
0.598679
0.59963
0.600523
0.601411
0.602329
0.603293
0.604278
0.605223
0.606123
0.607032
0.607976
0.608945
0.609919
0.610868
0.611791
0.612721
0.613659
0.614605
0.615559
0.616512
0.617464
0.618403
0.619316
0.620233
0.621177
0.622152
0.623144
0.624087
0.624982
0.625854
0.626795
0.627772
0.628766
0.629712
0.6306
0.631496
0.632412
0.63336
0.634343
0.635294
0.636208
0.637103
0.637984
0.638906
0.639876
0.640831
0.641752
0.642635
0.643502
0.64442
0.645382
0.646314
0.647185
0.648044
0.648941
0.64989
0.650851
0.651744
0.652568
0.653424
0.654349
0.655302
0.656213
0.65705
0.657928
0.658678
0.659953
0.386536
0.547372
0.485036
0.445064
0.45077
0.473276
0.495598
0.512677
0.524598
0.532506
0.537535
0.540671
0.54265
0.543954
0.544874
0.545598
0.546217
0.546724
0.547108
0.547395
0.547633
0.54787
0.548159
0.54852
0.54892
0.549313
0.549683
0.550053
0.550452
0.55089
0.551362
0.551862
0.552392
0.552961
0.553558
0.554169
0.554781
0.555391
0.556006
0.556627
0.557256
0.557889
0.558535
0.559197
0.559882
0.560588
0.561307
0.562026
0.562742
0.563455
0.564174
0.564906
0.56565
0.566408
0.567178
0.56796
0.568756
0.569567
0.570388
0.571212
0.572033
0.572852
0.573668
0.574488
0.575314
0.576151
0.576999
0.577857
0.578727
0.579605
0.580491
0.581377
0.582263
0.583148
0.584031
0.584917
0.585808
0.586706
0.587612
0.588513
0.589409
0.590299
0.591202
0.592134
0.593098
0.594042
0.594939
0.595826
0.596735
0.597688
0.598673
0.599624
0.600517
0.601407
0.602326
0.603288
0.604272
0.605218
0.60612
0.607033
0.607979
0.608948
0.609922
0.610869
0.611791
0.612721
0.61366
0.614606
0.615559
0.61651
0.61746
0.618399
0.619315
0.620235
0.621179
0.622151
0.623141
0.624088
0.624976
0.625861
0.626796
0.627769
0.628764
0.629713
0.630603
0.631499
0.632412
0.633356
0.634343
0.635299
0.63621
0.637099
0.637976
0.638901
0.639876
0.640833
0.641749
0.642628
0.643499
0.644423
0.645384
0.646308
0.647176
0.64804
0.648945
0.649895
0.650847
0.651734
0.652562
0.653428
0.654355
0.655299
0.656204
0.657044
0.657928
0.65868
0.659953
0.386294
0.54705
0.484875
0.445035
0.450776
0.473263
0.495565
0.512633
0.524554
0.532463
0.537493
0.540629
0.542613
0.54392
0.544845
0.545571
0.546192
0.546702
0.547089
0.547379
0.547619
0.547859
0.54815
0.548512
0.548912
0.549305
0.549677
0.550048
0.550446
0.550882
0.551353
0.551853
0.552382
0.552949
0.553547
0.554158
0.55477
0.55538
0.555995
0.556618
0.557248
0.557884
0.558533
0.559197
0.559884
0.560591
0.56131
0.562029
0.562745
0.563458
0.564177
0.564906
0.565647
0.566402
0.56717
0.567951
0.568745
0.569556
0.570377
0.571201
0.572023
0.572843
0.573663
0.574485
0.575313
0.576152
0.577
0.577859
0.57873
0.579609
0.580495
0.581381
0.582266
0.58315
0.584034
0.584919
0.585812
0.586709
0.587613
0.588513
0.589408
0.590298
0.591201
0.592132
0.593095
0.594038
0.594935
0.595823
0.596731
0.597682
0.598667
0.599619
0.600514
0.601405
0.602325
0.603286
0.604273
0.605219
0.606122
0.607034
0.607979
0.608947
0.609922
0.61087
0.611791
0.61272
0.613661
0.614608
0.615561
0.616509
0.617457
0.618397
0.619316
0.620238
0.621179
0.622149
0.623141
0.624103
0.624973
0.625861
0.626794
0.627767
0.628767
0.629719
0.630607
0.631498
0.632405
0.633353
0.634349
0.635305
0.636207
0.63709
0.637969
0.638899
0.63988
0.640833
0.641739
0.642619
0.6435
0.644426
0.645381
0.6463
0.647169
0.648041
0.648952
0.649896
0.650836
0.651722
0.652563
0.653433
0.654357
0.655295
0.656195
0.657037
0.65793
0.658683
0.659952
0.386503
0.547282
0.484963
0.44504
0.450773
0.473281
0.495599
0.512671
0.524588
0.532494
0.53752
0.540653
0.542631
0.543932
0.544853
0.545577
0.546197
0.546704
0.547086
0.547372
0.547611
0.547852
0.548146
0.548512
0.548912
0.549304
0.549675
0.550045
0.550442
0.550876
0.551343
0.55184
0.552369
0.552936
0.553535
0.554147
0.554762
0.555374
0.555989
0.556611
0.55724
0.557875
0.558523
0.559186
0.559871
0.560578
0.561297
0.562017
0.562734
0.563448
0.564167
0.564898
0.565641
0.566399
0.56717
0.567952
0.568747
0.569558
0.57038
0.571205
0.572027
0.572846
0.573665
0.574487
0.575315
0.576154
0.577001
0.577858
0.578725
0.579601
0.580484
0.58137
0.582256
0.583141
0.584024
0.58491
0.585803
0.5867
0.587604
0.588502
0.589396
0.590288
0.591193
0.592125
0.593089
0.594034
0.594932
0.595823
0.596733
0.597684
0.598668
0.599618
0.600512
0.601403
0.602322
0.603282
0.604268
0.605216
0.606119
0.607032
0.607979
0.608949
0.609925
0.610872
0.611789
0.612717
0.613659
0.614608
0.61556
0.616506
0.617452
0.618392
0.619314
0.620238
0.62118
0.622149
0.623139
0.624167
0.624934
0.625838
0.626796
0.627762
0.628758
0.629717
0.630611
0.631502
0.632405
0.633348
0.634347
0.635307
0.636205
0.637081
0.637959
0.638895
0.639882
0.640833
0.641732
0.64261
0.643498
0.644429
0.645379
0.646289
0.647159
0.64804
0.648959
0.649898
0.650825
0.651708
0.652559
0.653443
0.654365
0.655287
0.656177
0.657027
0.657933
0.658686
0.659948
0.386294
0.547049
0.484875
0.445032
0.450772
0.473259
0.495563
0.512632
0.524555
0.532465
0.537493
0.540629
0.542612
0.543919
0.544844
0.54557
0.546193
0.546703
0.547089
0.547379
0.547618
0.547858
0.548151
0.548514
0.548913
0.549306
0.549678
0.550049
0.550446
0.550881
0.551352
0.551855
0.552388
0.552957
0.553556
0.554169
0.554784
0.555395
0.556008
0.556625
0.55725
0.557887
0.55854
0.55921
0.559901
0.56061
0.561328
0.562047
0.562761
0.563472
0.564189
0.564917
0.565659
0.566414
0.567181
0.56796
0.568753
0.569562
0.570382
0.571205
0.572028
0.572849
0.57367
0.574494
0.575322
0.576158
0.577004
0.577861
0.578729
0.579606
0.580488
0.581373
0.582256
0.58314
0.584024
0.584911
0.585804
0.586701
0.587605
0.588505
0.5894
0.590291
0.591195
0.592127
0.593091
0.594037
0.594936
0.595826
0.596736
0.597687
0.598674
0.599625
0.600518
0.601408
0.602327
0.603289
0.604278
0.605225
0.606125
0.607036
0.607983
0.608954
0.609929
0.610874
0.61179
0.612718
0.613663
0.614613
0.615563
0.616506
0.617449
0.61839
0.619313
0.620236
0.621175
0.622143
0.623139
0.624108
0.624979
0.625853
0.626787
0.627761
0.628768
0.629724
0.630609
0.631494
0.632395
0.633346
0.634356
0.635315
0.636201
0.637071
0.637953
0.638896
0.639885
0.640832
0.641723
0.642603
0.643502
0.644434
0.645374
0.64628
0.647155
0.648044
0.648967
0.6499
0.650813
0.651696
0.652563
0.653453
0.654368
0.655283
0.656168
0.65702
0.657936
0.658689
0.659946
0.386536
0.547372
0.485036
0.445063
0.450766
0.47327
0.495596
0.512677
0.524598
0.532508
0.537537
0.540672
0.542652
0.543954
0.544877
0.545601
0.546222
0.546729
0.547111
0.547396
0.547634
0.547875
0.548171
0.548538
0.548938
0.549329
0.5497
0.550072
0.550471
0.550905
0.55137
0.551864
0.55239
0.552957
0.553559
0.554176
0.554795
0.555412
0.556031
0.556653
0.557278
0.557911
0.558555
0.559215
0.559897
0.5606
0.561318
0.56204
0.56276
0.563476
0.564197
0.564928
0.565671
0.566426
0.567192
0.56797
0.568761
0.56957
0.57039
0.571214
0.572038
0.572859
0.573679
0.574501
0.575329
0.576167
0.577013
0.57787
0.578737
0.579611
0.580492
0.581375
0.582258
0.583142
0.584026
0.584913
0.585807
0.586707
0.587611
0.588511
0.589406
0.590297
0.591203
0.592136
0.5931
0.594043
0.594939
0.595828
0.596739
0.597693
0.598679
0.599629
0.60052
0.601409
0.602328
0.603291
0.604279
0.605226
0.606128
0.607039
0.607987
0.608959
0.609934
0.610877
0.611792
0.612721
0.613668
0.614619
0.615568
0.616507
0.617449
0.618392
0.619316
0.620239
0.621175
0.622141
0.623136
0.62409
0.624988
0.625852
0.626785
0.627759
0.628768
0.629729
0.630613
0.631493
0.632391
0.633343
0.634359
0.63532
0.636201
0.637067
0.637952
0.6389
0.639891
0.640834
0.641721
0.642605
0.643511
0.644442
0.645372
0.646271
0.647152
0.648057
0.648984
0.649899
0.650797
0.651684
0.652569
0.653472
0.654378
0.655271
0.656147
0.657014
0.657944
0.658694
0.659942
0.386292
0.54704