/*--------------------------------*- C++ -*----------------------------------*\
  =========                 |
  \\      /  F ield         | OpenFOAM: The Open Source CFD Toolbox
   \\    /   O peration     | Website:  https://openfoam.org
    \\  /    A nd           | Version:  9
     \\/     M anipulation  |
\*---------------------------------------------------------------------------*/
FoamFile
{
    format      ascii;
    class       volScalarField;
    location    "1100";
    object      nut;
}
// * * * * * * * * * * * * * * * * * * * * * * * * * * * * * * * * * * * * * //

dimensions      [0 2 -1 0 0 0 0];

internalField   nonuniform List<scalar> 
329700
(
2.52381e-05
3.07229e-05
2.63299e-05
2.54728e-05
2.84254e-05
3.33044e-05
3.85844e-05
4.34046e-05
4.74592e-05
5.07153e-05
5.32528e-05
5.51972e-05
5.66904e-05
5.78648e-05
5.88219e-05
5.9623e-05
6.03124e-05
6.09209e-05
6.14492e-05
6.19024e-05
6.22897e-05
6.26241e-05
6.29217e-05
6.32083e-05
6.34894e-05
6.37548e-05
6.39965e-05
6.42161e-05
6.44199e-05
6.46123e-05
6.47948e-05
6.49682e-05
6.51345e-05
6.52963e-05
6.54562e-05
6.56133e-05
6.57644e-05
6.59084e-05
6.60459e-05
6.61774e-05
6.63025e-05
6.64225e-05
6.65388e-05
6.66527e-05
6.67657e-05
6.68782e-05
6.69899e-05
6.70998e-05
6.72066e-05
6.73102e-05
6.74121e-05
6.75122e-05
6.76105e-05
6.77074e-05
6.78031e-05
6.7898e-05
6.7993e-05
6.80885e-05
6.81843e-05
6.82796e-05
6.83738e-05
6.84661e-05
6.85568e-05
6.86466e-05
6.87356e-05
6.88232e-05
6.89085e-05
6.89931e-05
6.90784e-05
6.91649e-05
6.92529e-05
6.93405e-05
6.94265e-05
6.95111e-05
6.95938e-05
6.9676e-05
6.97592e-05
6.98436e-05
6.99311e-05
7.00162e-05
7.0096e-05
7.01691e-05
7.02418e-05
7.03244e-05
7.0418e-05
7.05104e-05
7.05884e-05
7.06517e-05
7.07162e-05
7.07979e-05
7.08978e-05
7.09911e-05
7.10616e-05
7.11192e-05
7.1182e-05
7.12649e-05
7.13627e-05
7.14495e-05
7.15148e-05
7.15743e-05
7.16444e-05
7.17291e-05
7.18184e-05
7.18962e-05
7.19615e-05
7.20276e-05
7.21e-05
7.21754e-05
7.22499e-05
7.23231e-05
7.23994e-05
7.24759e-05
7.25432e-05
7.26017e-05
7.26614e-05
7.27383e-05
7.28339e-05
7.29185e-05
7.29783e-05
7.30238e-05
7.30755e-05
7.31496e-05
7.32454e-05
7.33314e-05
7.33892e-05
7.34318e-05
7.34789e-05
7.35506e-05
7.36433e-05
7.37256e-05
7.37787e-05
7.38246e-05
7.38803e-05
7.39531e-05
7.40345e-05
7.41007e-05
7.41508e-05
7.42055e-05
7.42726e-05
7.4342e-05
7.44033e-05
7.44567e-05
7.45099e-05
7.45724e-05
7.46409e-05
7.47027e-05
7.47555e-05
7.48086e-05
7.48667e-05
7.49276e-05
7.49871e-05
7.50433e-05
7.50946e-05
7.5149e-05
7.52043e-05
7.52666e-05
7.52719e-05
2.52773e-05
3.07477e-05
2.63339e-05
2.54643e-05
2.84141e-05
3.32958e-05
3.85798e-05
4.34035e-05
4.746e-05
5.07175e-05
5.32562e-05
5.52012e-05
5.66944e-05
5.78689e-05
5.88259e-05
5.96271e-05
6.03163e-05
6.09245e-05
6.14524e-05
6.19052e-05
6.2292e-05
6.2626e-05
6.29232e-05
6.32096e-05
6.34907e-05
6.37561e-05
6.39977e-05
6.4217e-05
6.44207e-05
6.46133e-05
6.47961e-05
6.49697e-05
6.51358e-05
6.52972e-05
6.54569e-05
6.56137e-05
6.57648e-05
6.59086e-05
6.60462e-05
6.61777e-05
6.63029e-05
6.6423e-05
6.6539e-05
6.66528e-05
6.67657e-05
6.68783e-05
6.69899e-05
6.70997e-05
6.72065e-05
6.73104e-05
6.74122e-05
6.75121e-05
6.761e-05
6.77067e-05
6.78026e-05
6.78979e-05
6.79933e-05
6.80892e-05
6.81852e-05
6.82805e-05
6.83746e-05
6.84668e-05
6.85574e-05
6.86467e-05
6.87353e-05
6.88228e-05
6.89086e-05
6.89937e-05
6.90792e-05
6.91657e-05
6.92538e-05
6.93417e-05
6.94279e-05
6.95123e-05
6.95944e-05
6.96763e-05
6.97595e-05
6.98442e-05
6.99317e-05
7.00163e-05
7.00951e-05
7.01683e-05
7.02419e-05
7.03245e-05
7.04174e-05
7.05095e-05
7.05882e-05
7.06523e-05
7.07177e-05
7.08001e-05
7.08996e-05
7.09913e-05
7.10611e-05
7.1119e-05
7.11828e-05
7.12662e-05
7.13635e-05
7.14495e-05
7.15149e-05
7.1575e-05
7.16455e-05
7.17298e-05
7.18187e-05
7.18962e-05
7.19616e-05
7.20277e-05
7.20997e-05
7.21748e-05
7.22498e-05
7.23236e-05
7.23999e-05
7.24756e-05
7.25422e-05
7.26012e-05
7.26623e-05
7.274e-05
7.28345e-05
7.29181e-05
7.29794e-05
7.30238e-05
7.30754e-05
7.31497e-05
7.32454e-05
7.33317e-05
7.33892e-05
7.3431e-05
7.34783e-05
7.35503e-05
7.36428e-05
7.37253e-05
7.37793e-05
7.38253e-05
7.38801e-05
7.39524e-05
7.40343e-05
7.41014e-05
7.41523e-05
7.42062e-05
7.42713e-05
7.43402e-05
7.44032e-05
7.44578e-05
7.45108e-05
7.45724e-05
7.46399e-05
7.47021e-05
7.47562e-05
7.48092e-05
7.48657e-05
7.49263e-05
7.4987e-05
7.50438e-05
7.50949e-05
7.51482e-05
7.52025e-05
7.52652e-05
7.52718e-05
2.52395e-05
3.07201e-05
2.63263e-05
2.54691e-05
2.84227e-05
3.33034e-05
3.85845e-05
4.34055e-05
4.74603e-05
5.07161e-05
5.32535e-05
5.51976e-05
5.66903e-05
5.78646e-05
5.88215e-05
5.96226e-05
6.0312e-05
6.09205e-05
6.14488e-05
6.19018e-05
6.22888e-05
6.2623e-05
6.29206e-05
6.32074e-05
6.34887e-05
6.3754e-05
6.39955e-05
6.4215e-05
6.4419e-05
6.46118e-05
6.47946e-05
6.49681e-05
6.51343e-05
6.52958e-05
6.54554e-05
6.56122e-05
6.57633e-05
6.59073e-05
6.6045e-05
6.61765e-05
6.63019e-05
6.64221e-05
6.65384e-05
6.66521e-05
6.6765e-05
6.68774e-05
6.69891e-05
6.70989e-05
6.72057e-05
6.73096e-05
6.74114e-05
6.75114e-05
6.76098e-05
6.77069e-05
6.78029e-05
6.78979e-05
6.79928e-05
6.80884e-05
6.81844e-05
6.82799e-05
6.83744e-05
6.84671e-05
6.85581e-05
6.86475e-05
6.87357e-05
6.8823e-05
6.8909e-05
6.89944e-05
6.908e-05
6.91661e-05
6.92537e-05
6.93417e-05
6.94283e-05
6.95131e-05
6.95952e-05
6.96767e-05
6.97594e-05
6.98439e-05
6.9932e-05
7.00175e-05
7.00965e-05
7.01693e-05
7.02424e-05
7.03244e-05
7.04172e-05
7.05098e-05
7.0589e-05
7.06525e-05
7.07175e-05
7.08008e-05
7.09005e-05
7.09917e-05
7.10611e-05
7.11186e-05
7.11822e-05
7.12662e-05
7.13635e-05
7.14491e-05
7.15146e-05
7.15748e-05
7.16452e-05
7.17299e-05
7.1819e-05
7.18964e-05
7.19621e-05
7.20281e-05
7.20997e-05
7.21748e-05
7.22501e-05
7.23248e-05
7.24015e-05
7.24765e-05
7.25422e-05
7.26004e-05
7.26623e-05
7.27421e-05
7.28367e-05
7.29182e-05
7.29748e-05
7.30221e-05
7.30763e-05
7.31513e-05
7.3248e-05
7.33327e-05
7.33876e-05
7.34299e-05
7.34783e-05
7.35511e-05
7.36448e-05
7.37264e-05
7.37801e-05
7.38257e-05
7.388e-05
7.39518e-05
7.4034e-05
7.41025e-05
7.41541e-05
7.42068e-05
7.42701e-05
7.43387e-05
7.44033e-05
7.44595e-05
7.45124e-05
7.45721e-05
7.46383e-05
7.47013e-05
7.47573e-05
7.48108e-05
7.4866e-05
7.49251e-05
7.49859e-05
7.50443e-05
7.50964e-05
7.51487e-05
7.52017e-05
7.5265e-05
7.52723e-05
2.52201e-05
3.06934e-05
2.63176e-05
2.54754e-05
2.84344e-05
3.33137e-05
3.8591e-05
4.34085e-05
4.746e-05
5.07132e-05
5.32489e-05
5.51923e-05
5.66851e-05
5.78598e-05
5.88175e-05
5.96195e-05
6.03094e-05
6.09179e-05
6.14457e-05
6.18981e-05
6.22843e-05
6.26183e-05
6.29161e-05
6.32033e-05
6.3485e-05
6.37504e-05
6.3992e-05
6.42115e-05
6.44155e-05
6.46083e-05
6.47911e-05
6.49647e-05
6.51309e-05
6.52925e-05
6.54522e-05
6.5609e-05
6.57601e-05
6.59042e-05
6.60421e-05
6.61739e-05
6.62995e-05
6.64199e-05
6.65361e-05
6.66498e-05
6.67627e-05
6.68754e-05
6.69873e-05
6.70975e-05
6.72046e-05
6.73086e-05
6.74107e-05
6.75107e-05
6.76089e-05
6.77057e-05
6.78017e-05
6.78973e-05
6.79933e-05
6.80896e-05
6.81857e-05
6.82809e-05
6.83748e-05
6.84668e-05
6.85572e-05
6.86465e-05
6.87351e-05
6.8823e-05
6.89091e-05
6.89942e-05
6.90793e-05
6.91654e-05
6.92538e-05
6.93423e-05
6.94291e-05
6.95133e-05
6.95949e-05
6.96765e-05
6.97596e-05
6.98446e-05
6.99327e-05
7.00176e-05
7.0096e-05
7.01689e-05
7.02422e-05
7.03245e-05
7.04185e-05
7.05109e-05
7.05887e-05
7.06515e-05
7.07167e-05
7.08013e-05
7.09018e-05
7.09929e-05
7.10617e-05
7.11184e-05
7.11818e-05
7.12664e-05
7.13642e-05
7.145e-05
7.15151e-05
7.15748e-05
7.16451e-05
7.17302e-05
7.18197e-05
7.18975e-05
7.1963e-05
7.20284e-05
7.20994e-05
7.21746e-05
7.22507e-05
7.23262e-05
7.24029e-05
7.2477e-05
7.25421e-05
7.26005e-05
7.26638e-05
7.27445e-05
7.2838e-05
7.29184e-05
7.29766e-05
7.30231e-05
7.30771e-05
7.3152e-05
7.32491e-05
7.33335e-05
7.33873e-05
7.34294e-05
7.34783e-05
7.35513e-05
7.36453e-05
7.37269e-05
7.37814e-05
7.38272e-05
7.38799e-05
7.39504e-05
7.40332e-05
7.41035e-05
7.41565e-05
7.42084e-05
7.42688e-05
7.43366e-05
7.44034e-05
7.44617e-05
7.45141e-05
7.4572e-05
7.46367e-05
7.47003e-05
7.47587e-05
7.48129e-05
7.4866e-05
7.49237e-05
7.4985e-05
7.50446e-05
7.50972e-05
7.51489e-05
7.52005e-05
7.52634e-05
7.52717e-05
2.5276e-05
3.0743e-05
2.63292e-05
2.54587e-05
2.8409e-05
3.32923e-05
3.85777e-05
4.34029e-05
4.74602e-05
5.07178e-05
5.32564e-05
5.52008e-05
5.66931e-05
5.78671e-05
5.88241e-05
5.96255e-05
6.0315e-05
6.09235e-05
6.14514e-05
6.19037e-05
6.22899e-05
6.26237e-05
6.29212e-05
6.32078e-05
6.34889e-05
6.3754e-05
6.39955e-05
6.42149e-05
6.44188e-05
6.46115e-05
6.47943e-05
6.49678e-05
6.5134e-05
6.52955e-05
6.54549e-05
6.56116e-05
6.57626e-05
6.59066e-05
6.60443e-05
6.61759e-05
6.63013e-05
6.64216e-05
6.65379e-05
6.66515e-05
6.67641e-05
6.68763e-05
6.69881e-05
6.70983e-05
6.72055e-05
6.73095e-05
6.74115e-05
6.75113e-05
6.76093e-05
6.77062e-05
6.78022e-05
6.78977e-05
6.79935e-05
6.80896e-05
6.81856e-05
6.82808e-05
6.83746e-05
6.84669e-05
6.85577e-05
6.86474e-05
6.8736e-05
6.88235e-05
6.89094e-05
6.89945e-05
6.90797e-05
6.91656e-05
6.92535e-05
6.93416e-05
6.94285e-05
6.95133e-05
6.95951e-05
6.96764e-05
6.97591e-05
6.98442e-05
6.99327e-05
7.00179e-05
7.00966e-05
7.01687e-05
7.02411e-05
7.03236e-05
7.04196e-05
7.0513e-05
7.05889e-05
7.06502e-05
7.07151e-05
7.08005e-05
7.09022e-05
7.09942e-05
7.10626e-05
7.11183e-05
7.11818e-05
7.12672e-05
7.13655e-05
7.14508e-05
7.1515e-05
7.15742e-05
7.16446e-05
7.17301e-05
7.18196e-05
7.18974e-05
7.19633e-05
7.2029e-05
7.21e-05
7.21747e-05
7.22505e-05
7.23263e-05
7.24034e-05
7.24777e-05
7.25423e-05
7.26001e-05
7.26637e-05
7.27451e-05
7.28386e-05
7.29179e-05
7.29754e-05
7.30228e-05
7.30777e-05
7.31529e-05
7.32499e-05
7.3333e-05
7.33856e-05
7.34284e-05
7.34787e-05
7.35523e-05
7.3646e-05
7.37265e-05
7.3781e-05
7.38272e-05
7.38803e-05
7.39509e-05
7.40335e-05
7.41036e-05
7.41568e-05
7.42082e-05
7.42681e-05
7.43365e-05
7.44044e-05
7.44627e-05
7.45143e-05
7.45709e-05
7.46356e-05
7.47013e-05
7.47607e-05
7.48128e-05
7.48639e-05
7.4922e-05
7.49853e-05
7.50471e-05
7.50992e-05
7.51478e-05
7.51984e-05
7.52638e-05
7.52734e-05
2.52204e-05
3.06937e-05
2.63174e-05
2.54746e-05
2.84335e-05
3.33129e-05
3.85903e-05
4.34082e-05
4.746e-05
5.07133e-05
5.3249e-05
5.51922e-05
5.66846e-05
5.7859e-05
5.88166e-05
5.96188e-05
6.03094e-05
6.09185e-05
6.14467e-05
6.18985e-05
6.22842e-05
6.26181e-05
6.29162e-05
6.32036e-05
6.34852e-05
6.37506e-05
6.39925e-05
6.42124e-05
6.44164e-05
6.46089e-05
6.47914e-05
6.49649e-05
6.51313e-05
6.5293e-05
6.54527e-05
6.56094e-05
6.57605e-05
6.59045e-05
6.60422e-05
6.61737e-05
6.62992e-05
6.64196e-05
6.6536e-05
6.66498e-05
6.67627e-05
6.68752e-05
6.69872e-05
6.70976e-05
6.72048e-05
6.73087e-05
6.74105e-05
6.75105e-05
6.76085e-05
6.77054e-05
6.78013e-05
6.78969e-05
6.7993e-05
6.80896e-05
6.8186e-05
6.82812e-05
6.83748e-05
6.84667e-05
6.85575e-05
6.86475e-05
6.87366e-05
6.88242e-05
6.89098e-05
6.89944e-05
6.90793e-05
6.91653e-05
6.92534e-05
6.93416e-05
6.94284e-05
6.95131e-05
6.95951e-05
6.96767e-05
6.97597e-05
6.98444e-05
6.99321e-05
7.00169e-05
7.00959e-05
7.01684e-05
7.0241e-05
7.0324e-05
7.04203e-05
7.05133e-05
7.05884e-05
7.06502e-05
7.07158e-05
7.08012e-05
7.09025e-05
7.09944e-05
7.10635e-05
7.11197e-05
7.11829e-05
7.12674e-05
7.13651e-05
7.14505e-05
7.15155e-05
7.15751e-05
7.16452e-05
7.17299e-05
7.1819e-05
7.18972e-05
7.19638e-05
7.20297e-05
7.21002e-05
7.21743e-05
7.22501e-05
7.23264e-05
7.24037e-05
7.24776e-05
7.25417e-05
7.25998e-05
7.2664e-05
7.27455e-05
7.28382e-05
7.29166e-05
7.29736e-05
7.30209e-05
7.30777e-05
7.31543e-05
7.32505e-05
7.33325e-05
7.33853e-05
7.34294e-05
7.34805e-05
7.35533e-05
7.36451e-05
7.3725e-05
7.3781e-05
7.38287e-05
7.38813e-05
7.39504e-05
7.40319e-05
7.4103e-05
7.41585e-05
7.42103e-05
7.42679e-05
7.43347e-05
7.44037e-05
7.44639e-05
7.45159e-05
7.45713e-05
7.4634e-05
7.46996e-05
7.47618e-05
7.48153e-05
7.48648e-05
7.4921e-05
7.49839e-05
7.50465e-05
7.51002e-05
7.51492e-05
7.51982e-05
7.52625e-05
7.52724e-05
2.524e-05
3.072e-05
2.63253e-05
2.54674e-05
2.84208e-05
3.33018e-05
3.85834e-05
4.3405e-05
4.74603e-05
5.07163e-05
5.32536e-05
5.51975e-05
5.66899e-05
5.7864e-05
5.88209e-05
5.96222e-05
6.03121e-05
6.09209e-05
6.14493e-05
6.1902e-05
6.22885e-05
6.26227e-05
6.29205e-05
6.32075e-05
6.34887e-05
6.37536e-05
6.3995e-05
6.42146e-05
6.44187e-05
6.46115e-05
6.47942e-05
6.49676e-05
6.51338e-05
6.52954e-05
6.5455e-05
6.56116e-05
6.57627e-05
6.59067e-05
6.60446e-05
6.61762e-05
6.63015e-05
6.64217e-05
6.6538e-05
6.66519e-05
6.67647e-05
6.68769e-05
6.69885e-05
6.70986e-05
6.72057e-05
6.73097e-05
6.74116e-05
6.75115e-05
6.76096e-05
6.77067e-05
6.78028e-05
6.78984e-05
6.79941e-05
6.80903e-05
6.81863e-05
6.82814e-05
6.83751e-05
6.8467e-05
6.85573e-05
6.86465e-05
6.8735e-05
6.88228e-05
6.89092e-05
6.89951e-05
6.90807e-05
6.91667e-05
6.92542e-05
6.93417e-05
6.94281e-05
6.95128e-05
6.95948e-05
6.96765e-05
6.97595e-05
6.98442e-05
6.99317e-05
7.00163e-05
7.00956e-05
7.01685e-05
7.02415e-05
7.03247e-05
7.04204e-05
7.05123e-05
7.05873e-05
7.065e-05
7.07163e-05
7.08014e-05
7.09017e-05
7.09932e-05
7.10631e-05
7.11207e-05
7.11841e-05
7.12677e-05
7.13642e-05
7.14495e-05
7.15154e-05
7.15759e-05
7.16458e-05
7.17296e-05
7.18181e-05
7.18965e-05
7.19639e-05
7.20304e-05
7.21006e-05
7.21742e-05
7.22497e-05
7.2326e-05
7.24035e-05
7.24773e-05
7.25411e-05
7.25993e-05
7.26639e-05
7.27456e-05
7.28382e-05
7.29159e-05
7.29728e-05
7.30205e-05
7.30777e-05
7.31555e-05
7.32515e-05
7.33326e-05
7.33849e-05
7.34293e-05
7.34811e-05
7.35536e-05
7.36442e-05
7.37237e-05
7.37811e-05
7.38304e-05
7.38829e-05
7.39499e-05
7.40297e-05
7.41017e-05
7.416e-05
7.42128e-05
7.42685e-05
7.43329e-05
7.4402e-05
7.44649e-05
7.45186e-05
7.45722e-05
7.46322e-05
7.46975e-05
7.47618e-05
7.48175e-05
7.48664e-05
7.492e-05
7.49818e-05
7.50462e-05
7.51019e-05
7.51509e-05
7.51985e-05
7.52619e-05
7.5272e-05
2.52746e-05
3.07422e-05
2.63294e-05
2.54608e-05
2.84115e-05
3.32941e-05
3.85787e-05
4.3403e-05
4.74597e-05
5.07172e-05
5.32556e-05
5.52001e-05
5.66929e-05
5.78671e-05
5.88241e-05
5.96254e-05
6.03151e-05
6.09236e-05
6.14516e-05
6.19039e-05
6.22904e-05
6.26244e-05
6.2922e-05
6.32086e-05
6.34894e-05
6.37544e-05
6.39959e-05
6.42155e-05
6.44194e-05
6.46121e-05
6.47948e-05
6.49684e-05
6.51348e-05
6.52965e-05
6.54559e-05
6.56124e-05
6.57634e-05
6.59074e-05
6.60453e-05
6.61769e-05
6.63023e-05
6.64224e-05
6.65386e-05
6.66522e-05
6.67649e-05
6.68774e-05
6.69893e-05
6.70994e-05
6.72065e-05
6.73104e-05
6.74122e-05
6.7512e-05
6.761e-05
6.77069e-05
6.78028e-05
6.78983e-05
6.79939e-05
6.80901e-05
6.81863e-05
6.82816e-05
6.83753e-05
6.8467e-05
6.85572e-05
6.86466e-05
6.87354e-05
6.88231e-05
6.89091e-05
6.89944e-05
6.90799e-05
6.91662e-05
6.92539e-05
6.93416e-05
6.94285e-05
6.95138e-05
6.95961e-05
6.96776e-05
6.976e-05
6.98443e-05
6.99319e-05
7.00169e-05
7.00964e-05
7.01689e-05
7.02413e-05
7.03247e-05
7.04211e-05
7.05133e-05
7.05878e-05
7.06499e-05
7.07158e-05
7.08009e-05
7.09014e-05
7.09931e-05
7.10628e-05
7.11201e-05
7.11835e-05
7.12674e-05
7.1364e-05
7.14493e-05
7.15154e-05
7.15761e-05
7.16463e-05
7.17302e-05
7.18185e-05
7.18969e-05
7.19645e-05
7.20307e-05
7.21002e-05
7.21732e-05
7.22492e-05
7.23264e-05
7.24043e-05
7.24774e-05
7.25401e-05
7.2598e-05
7.26639e-05
7.27467e-05
7.2839e-05
7.29155e-05
7.29724e-05
7.30203e-05
7.30788e-05
7.31574e-05
7.32517e-05
7.33314e-05
7.33847e-05
7.34314e-05
7.34844e-05
7.3555e-05
7.36421e-05
7.37211e-05
7.37814e-05
7.38328e-05
7.38848e-05
7.39495e-05
7.40272e-05
7.41002e-05
7.41617e-05
7.42153e-05
7.42686e-05
7.43313e-05
7.44012e-05
7.44658e-05
7.45204e-05
7.4573e-05
7.46307e-05
7.4696e-05
7.47631e-05
7.48199e-05
7.48672e-05
7.49193e-05
7.49804e-05
7.50454e-05
7.51031e-05
7.51526e-05
7.51983e-05
7.52607e-05
7.5271e-05
2.52246e-05
3.07004e-05
2.63209e-05
2.54751e-05
2.84323e-05
3.33111e-05
3.8589e-05
4.3407e-05
4.74598e-05
5.07145e-05
5.32508e-05
5.51943e-05
5.66864e-05
5.786e-05
5.88169e-05
5.96182e-05
6.0308e-05
6.0917e-05
6.14456e-05
6.18991e-05
6.22865e-05
6.26214e-05
6.29199e-05
6.32068e-05
6.34877e-05
6.37529e-05
6.39949e-05
6.42151e-05
6.44194e-05
6.4612e-05
6.47947e-05
6.49683e-05
6.51349e-05
6.52969e-05
6.54565e-05
6.5613e-05
6.57638e-05
6.59077e-05
6.60455e-05
6.6177e-05
6.63028e-05
6.64219e-05
6.6538e-05
6.66518e-05
6.67645e-05
6.68771e-05
6.69889e-05
6.7099e-05
6.72061e-05
6.731e-05
6.74115e-05
6.75111e-05
6.7609e-05
6.77059e-05
6.7802e-05
6.78975e-05
6.79933e-05
6.80896e-05
6.81859e-05
6.82812e-05
6.8375e-05
6.84667e-05
6.85568e-05
6.86459e-05
6.87344e-05
6.88221e-05
6.89085e-05
6.89944e-05
6.90802e-05
6.91663e-05
6.92538e-05
6.93416e-05
6.94286e-05
6.95138e-05
6.95962e-05
6.96779e-05
6.97605e-05
6.98447e-05
6.99318e-05
7.00161e-05
7.00956e-05
7.01687e-05
7.02416e-05
7.0325e-05
7.04207e-05
7.05119e-05
7.05863e-05
7.06494e-05
7.07161e-05
7.08013e-05
7.09011e-05
7.09919e-05
7.10615e-05
7.11196e-05
7.11839e-05
7.12679e-05
7.13637e-05
7.14482e-05
7.15144e-05
7.15758e-05
7.16463e-05
7.17296e-05
7.18172e-05
7.18957e-05
7.1964e-05
7.20308e-05
7.20999e-05
7.21725e-05
7.22483e-05
7.2326e-05
7.24043e-05
7.24772e-05
7.25394e-05
7.25974e-05
7.2664e-05
7.27476e-05
7.28395e-05
7.29145e-05
7.29712e-05
7.30204e-05
7.30798e-05
7.31593e-05
7.32525e-05
7.33297e-05
7.33823e-05
7.34306e-05
7.34862e-05
7.35574e-05
7.36419e-05
7.3718e-05
7.37792e-05
7.38341e-05
7.38875e-05
7.39503e-05
7.40248e-05
7.40975e-05
7.41621e-05
7.42177e-05
7.42695e-05
7.43293e-05
7.43991e-05
7.44671e-05
7.45237e-05
7.45737e-05
7.46278e-05
7.46928e-05
7.47632e-05
7.48237e-05
7.48699e-05
7.49169e-05
7.4976e-05
7.50441e-05
7.51055e-05
7.51558e-05
7.51994e-05
7.52592e-05
7.52694e-05
2.5238e-05
3.07187e-05
2.63269e-05
2.54705e-05
2.84241e-05
3.33042e-05
3.85851e-05
4.34055e-05
4.746e-05
5.07159e-05
5.3253e-05
5.51971e-05
5.66901e-05
5.78645e-05
5.8822e-05
5.96236e-05
6.03136e-05
6.09227e-05
6.14512e-05
6.19045e-05
6.22917e-05
6.26261e-05
6.29239e-05
6.32104e-05
6.34912e-05
6.37562e-05
6.39977e-05
6.42171e-05
6.44209e-05
6.46131e-05
6.47954e-05
6.49687e-05
6.51349e-05
6.52963e-05
6.54554e-05
6.56114e-05
6.57618e-05
6.59057e-05
6.60437e-05
6.61754e-05
6.63006e-05
6.64202e-05
6.65364e-05
6.66504e-05
6.67633e-05
6.68757e-05
6.69872e-05
6.70969e-05
6.72038e-05
6.73073e-05
6.74088e-05
6.75089e-05
6.76077e-05
6.77054e-05
6.78019e-05
6.78975e-05
6.79932e-05
6.80893e-05
6.81853e-05
6.82807e-05
6.83747e-05
6.84666e-05
6.85567e-05
6.86458e-05
6.87343e-05
6.88217e-05
6.89076e-05
6.89929e-05
6.90784e-05
6.91646e-05
6.92522e-05
6.93402e-05
6.94278e-05
6.95138e-05
6.95968e-05
6.96785e-05
6.97606e-05
6.98444e-05
6.99316e-05
7.00163e-05
7.00959e-05
7.01689e-05
7.02417e-05
7.03249e-05
7.04205e-05
7.05116e-05
7.05861e-05
7.06494e-05
7.07161e-05
7.08009e-05
7.09002e-05
7.09907e-05
7.10604e-05
7.11195e-05
7.11844e-05
7.12679e-05
7.1363e-05
7.14469e-05
7.15133e-05
7.15757e-05
7.16468e-05
7.17298e-05
7.18165e-05
7.18944e-05
7.1963e-05
7.20302e-05
7.20995e-05
7.21718e-05
7.22477e-05
7.23255e-05
7.24041e-05
7.24768e-05
7.25385e-05
7.2597e-05
7.26645e-05
7.27481e-05
7.28394e-05
7.29154e-05
7.2967e-05
7.30179e-05
7.30801e-05
7.316e-05
7.32516e-05
7.3328e-05
7.33816e-05
7.34318e-05
7.34882e-05
7.35578e-05
7.36396e-05
7.37155e-05
7.37792e-05
7.38358e-05
7.38888e-05
7.39496e-05
7.40222e-05
7.40957e-05
7.41634e-05
7.42198e-05
7.42693e-05
7.43275e-05
7.43979e-05
7.44677e-05
7.45252e-05
7.4574e-05
7.46257e-05
7.46908e-05
7.47642e-05
7.48262e-05
7.48709e-05
7.49161e-05
7.4974e-05
7.50426e-05
7.51067e-05
7.51579e-05
7.51995e-05
7.52579e-05
7.52682e-05
2.52779e-05
3.07497e-05
2.63354e-05
2.54645e-05
2.84136e-05
3.32951e-05
3.85794e-05
4.34033e-05
4.74601e-05
5.07179e-05
5.32564e-05
5.52014e-05
5.66946e-05
5.78689e-05
5.88261e-05
5.96274e-05
6.03169e-05
6.09253e-05
6.14532e-05
6.19059e-05
6.22925e-05
6.26263e-05
6.29239e-05
6.32105e-05
6.34913e-05
6.37562e-05
6.39976e-05
6.42171e-05
6.4421e-05
6.46132e-05
6.47954e-05
6.49687e-05
6.51352e-05
6.52972e-05
6.54569e-05
6.56132e-05
6.57639e-05
6.59079e-05
6.60459e-05
6.61775e-05
6.63031e-05
6.6422e-05
6.65384e-05
6.66523e-05
6.67651e-05
6.68774e-05
6.6989e-05
6.7099e-05
6.72062e-05
6.731e-05
6.74114e-05
6.75112e-05
6.76097e-05
6.77071e-05
6.78033e-05
6.78986e-05
6.79942e-05
6.80902e-05
6.81861e-05
6.82811e-05
6.83748e-05
6.84667e-05
6.85568e-05
6.86459e-05
6.87345e-05
6.88223e-05
6.89088e-05
6.89946e-05
6.90799e-05
6.91657e-05
6.92531e-05
6.93411e-05
6.94285e-05
6.95138e-05
6.95961e-05
6.96774e-05
6.97599e-05
6.98444e-05
6.99318e-05
7.00161e-05
7.00957e-05
7.01687e-05
7.02417e-05
7.03244e-05
7.04197e-05
7.0511e-05
7.05861e-05
7.06505e-05
7.07176e-05
7.08015e-05
7.09002e-05
7.09904e-05
7.10601e-05
7.112e-05
7.11855e-05
7.12685e-05
7.13629e-05
7.14462e-05
7.15126e-05
7.15758e-05
7.16474e-05
7.17298e-05
7.18156e-05
7.1893e-05
7.19617e-05
7.20302e-05
7.21002e-05
7.21724e-05
7.22477e-05
7.23246e-05
7.2403e-05
7.24766e-05
7.25391e-05
7.25982e-05
7.26654e-05
7.27477e-05
7.28388e-05
7.29371e-05
7.29491e-05
7.30074e-05
7.30793e-05
7.31613e-05
7.32514e-05
7.33271e-05
7.33814e-05
7.34325e-05
7.34895e-05
7.35589e-05
7.36391e-05
7.37136e-05
7.37783e-05
7.38369e-05
7.38903e-05
7.395e-05
7.40209e-05
7.40941e-05
7.41638e-05
7.42215e-05
7.42699e-05
7.43261e-05
7.43965e-05
7.44683e-05
7.45271e-05
7.45743e-05
7.46236e-05
7.46887e-05
7.47649e-05
7.48291e-05
7.48724e-05
7.49134e-05
7.49701e-05
7.50424e-05
7.511e-05
7.5161e-05
7.51996e-05
7.52555e-05
7.52669e-05
2.52361e-05
3.07218e-05
2.63298e-05
2.54727e-05
2.84255e-05
3.33045e-05
3.85845e-05
4.34046e-05
4.74593e-05
5.07156e-05
5.3253e-05
5.51974e-05
5.66905e-05
5.78648e-05
5.88221e-05
5.96233e-05
6.03129e-05
6.09215e-05
6.14497e-05
6.19028e-05
6.22898e-05
6.26241e-05
6.2922e-05
6.32087e-05
6.34898e-05
6.37552e-05
6.3997e-05
6.42166e-05
6.44205e-05
6.46127e-05
6.47952e-05
6.49689e-05
6.51357e-05
6.52978e-05
6.54575e-05
6.56139e-05
6.57647e-05
6.59088e-05
6.60466e-05
6.61782e-05
6.63033e-05
6.6423e-05
6.65391e-05
6.66528e-05
6.67656e-05
6.68781e-05
6.69901e-05
6.71004e-05
6.72076e-05
6.73112e-05
6.74126e-05
6.75124e-05
6.76106e-05
6.77072e-05
6.78025e-05
6.78972e-05
6.79928e-05
6.80892e-05
6.81854e-05
6.82807e-05
6.83746e-05
6.84668e-05
6.85573e-05
6.86466e-05
6.8735e-05
6.88225e-05
6.89088e-05
6.89945e-05
6.908e-05
6.91657e-05
6.92526e-05
6.93403e-05
6.94275e-05
6.95133e-05
6.95964e-05
6.96782e-05
6.97605e-05
6.98442e-05
6.99304e-05
7.00146e-05
7.00943e-05
7.01681e-05
7.02418e-05
7.0324e-05
7.0418e-05
7.05086e-05
7.05847e-05
7.06515e-05
7.07195e-05
7.08019e-05
7.08985e-05
7.09878e-05
7.10586e-05
7.11209e-05
7.11871e-05
7.12686e-05
7.13615e-05
7.14445e-05
7.15121e-05
7.15769e-05
7.16487e-05
7.17297e-05
7.18144e-05
7.18917e-05
7.1961e-05
7.20303e-05
7.21007e-05
7.21729e-05
7.22479e-05
7.23243e-05
7.24023e-05
7.24759e-05
7.25393e-05
7.25997e-05
7.26669e-05
7.27474e-05
7.28371e-05
7.29171e-05
7.29644e-05
7.30143e-05
7.30798e-05
7.31604e-05
7.32502e-05
7.33256e-05
7.33808e-05
7.34331e-05
7.34903e-05
7.35588e-05
7.36381e-05
7.37129e-05
7.3779e-05
7.38379e-05
7.38904e-05
7.3949e-05
7.40196e-05
7.40942e-05
7.41653e-05
7.42223e-05
7.42687e-05
7.43246e-05
7.43966e-05
7.44699e-05
7.45283e-05
7.45733e-05
7.46209e-05
7.46873e-05
7.47667e-05
7.48321e-05
7.48734e-05
7.49123e-05
7.49681e-05
7.50413e-05
7.51112e-05
7.51632e-05
7.52003e-05
7.52549e-05
7.5266e-05
2.52754e-05
3.07455e-05
2.63347e-05
2.54679e-05
2.84188e-05
3.33002e-05
3.85834e-05
4.34061e-05
4.74619e-05
5.0719e-05
5.3257e-05
5.52016e-05
5.66945e-05
5.78686e-05
5.88257e-05
5.96269e-05
6.03164e-05
6.09247e-05
6.14525e-05
6.19052e-05
6.22917e-05
6.26257e-05
6.29234e-05
6.321e-05
6.34908e-05
6.37557e-05
6.39971e-05
6.42165e-05
6.44204e-05
6.46126e-05
6.47949e-05
6.49683e-05
6.51351e-05
6.52973e-05
6.54571e-05
6.56135e-05
6.5764e-05
6.59079e-05
6.60456e-05
6.61771e-05
6.63022e-05
6.64221e-05
6.65381e-05
6.66517e-05
6.67642e-05
6.68766e-05
6.69883e-05
6.70984e-05
6.72056e-05
6.73094e-05
6.74109e-05
6.75106e-05
6.76088e-05
6.77058e-05
6.78015e-05
6.78964e-05
6.7992e-05
6.80884e-05
6.81848e-05
6.82801e-05
6.83739e-05
6.84659e-05
6.85561e-05
6.86451e-05
6.87332e-05
6.88203e-05
6.89063e-05
6.8992e-05
6.90777e-05
6.9164e-05
6.92514e-05
6.93391e-05
6.9426e-05
6.9511e-05
6.95937e-05
6.96755e-05
6.97581e-05
6.98423e-05
6.99288e-05
7.00129e-05
7.0093e-05
7.01673e-05
7.02415e-05
7.0324e-05
7.04177e-05
7.05079e-05
7.05838e-05
7.06506e-05
7.07188e-05
7.08013e-05
7.08975e-05
7.09867e-05
7.10578e-05
7.11204e-05
7.11871e-05
7.12688e-05
7.13613e-05
7.14443e-05
7.1512e-05
7.15768e-05
7.16487e-05
7.17297e-05
7.18143e-05
7.18916e-05
7.19611e-05
7.20304e-05
7.21009e-05
7.21729e-05
7.22478e-05
7.23242e-05
7.24025e-05
7.24765e-05
7.25399e-05
7.25998e-05
7.26666e-05
7.27469e-05
7.28364e-05
7.29121e-05
7.29681e-05
7.30152e-05
7.30805e-05
7.31607e-05
7.32497e-05
7.33251e-05
7.3381e-05
7.34338e-05
7.34912e-05
7.3559e-05
7.36372e-05
7.37113e-05
7.37785e-05
7.38391e-05
7.38918e-05
7.39497e-05
7.40191e-05
7.40925e-05
7.41645e-05
7.42232e-05
7.42696e-05
7.43247e-05
7.43959e-05
7.44688e-05
7.45279e-05
7.4574e-05
7.46213e-05
7.46871e-05
7.47667e-05
7.48321e-05
7.48731e-05
7.49115e-05
7.49675e-05
7.5042e-05
7.51128e-05
7.51642e-05
7.52002e-05
7.52546e-05
7.52662e-05
2.52358e-05
3.07218e-05
2.63304e-05
2.54734e-05
2.8426e-05
3.33047e-05
3.85845e-05
4.34046e-05
4.74593e-05
5.07156e-05
5.32534e-05
5.5198e-05
5.66912e-05
5.78655e-05
5.88226e-05
5.96235e-05
6.03127e-05
6.09209e-05
6.14486e-05
6.19015e-05
6.22885e-05
6.26228e-05
6.29203e-05
6.32065e-05
6.34868e-05
6.37514e-05
6.39926e-05
6.42119e-05
6.44155e-05
6.4608e-05
6.47911e-05
6.49656e-05
6.51332e-05
6.52957e-05
6.54553e-05
6.56114e-05
6.57619e-05
6.5906e-05
6.60441e-05
6.61758e-05
6.63011e-05
6.64211e-05
6.6537e-05
6.66505e-05
6.67629e-05
6.68751e-05
6.69868e-05
6.70968e-05
6.72039e-05
6.73077e-05
6.74092e-05
6.7509e-05
6.7607e-05
6.77037e-05
6.77993e-05
6.78947e-05
6.7991e-05
6.80877e-05
6.8184e-05
6.82792e-05
6.83731e-05
6.84653e-05
6.85557e-05
6.86445e-05
6.87324e-05
6.88197e-05
6.8906e-05
6.89918e-05
6.90774e-05
6.91634e-05
6.92508e-05
6.93388e-05
6.9426e-05
6.95113e-05
6.95942e-05
6.96761e-05
6.97586e-05
6.98426e-05
6.99289e-05
7.0013e-05
7.00931e-05
7.01673e-05
7.02412e-05
7.03235e-05
7.04171e-05
7.05077e-05
7.05842e-05
7.06512e-05
7.07193e-05
7.08014e-05
7.08976e-05
7.09872e-05
7.10587e-05
7.11216e-05
7.11884e-05
7.127e-05
7.13623e-05
7.14452e-05
7.15129e-05
7.15776e-05
7.16492e-05
7.17298e-05
7.1814e-05
7.18914e-05
7.19612e-05
7.20309e-05
7.21015e-05
7.21735e-05
7.22481e-05
7.23242e-05
7.24023e-05
7.24766e-05
7.25407e-05
7.26012e-05
7.26674e-05
7.27465e-05
7.2835e-05
7.29111e-05
7.29688e-05
7.30171e-05
7.30816e-05
7.31606e-05
7.32487e-05
7.33242e-05
7.3381e-05
7.34344e-05
7.34911e-05
7.35585e-05
7.3637e-05
7.37119e-05
7.37796e-05
7.38392e-05
7.38906e-05
7.39482e-05
7.40189e-05
7.40937e-05
7.41656e-05
7.42227e-05
7.42678e-05
7.43235e-05
7.43968e-05
7.44707e-05
7.45284e-05
7.45722e-05
7.46192e-05
7.46867e-05
7.47683e-05
7.48341e-05
7.48735e-05
7.49105e-05
7.49663e-05
7.50418e-05
7.51138e-05
7.51656e-05
7.52008e-05
7.52542e-05
7.52658e-05
2.52753e-05
3.07453e-05
2.63345e-05
2.54677e-05
2.84189e-05
3.33004e-05
3.85836e-05
4.34065e-05
4.74623e-05
5.07191e-05
5.32574e-05
5.5202e-05
5.66947e-05
5.78687e-05
5.88252e-05
5.9626e-05
6.03149e-05
6.09226e-05
6.14501e-05
6.19024e-05
6.22891e-05
6.26233e-05
6.29205e-05
6.32064e-05
6.34867e-05
6.37512e-05
6.39921e-05
6.42112e-05
6.44149e-05
6.46077e-05
6.4791e-05
6.49653e-05
6.51328e-05
6.52956e-05
6.54555e-05
6.56115e-05
6.57616e-05
6.59052e-05
6.6043e-05
6.61747e-05
6.63e-05
6.64199e-05
6.65363e-05
6.66506e-05
6.67642e-05
6.68775e-05
6.69896e-05
6.70993e-05
6.72055e-05
6.73083e-05
6.7409e-05
6.75081e-05
6.76057e-05
6.77024e-05
6.77981e-05
6.78935e-05
6.79896e-05
6.80864e-05
6.81829e-05
6.82784e-05
6.83723e-05
6.84644e-05
6.85546e-05
6.86431e-05
6.87305e-05
6.88173e-05
6.89035e-05
6.89895e-05
6.90756e-05
6.91623e-05
6.92503e-05
6.93386e-05
6.9426e-05
6.95117e-05
6.95949e-05
6.96769e-05
6.97591e-05
6.98426e-05
6.99287e-05
7.00131e-05
7.00934e-05
7.0168e-05
7.02421e-05
7.03248e-05
7.04184e-05
7.05084e-05
7.05844e-05
7.0651e-05
7.07195e-05
7.08027e-05
7.08988e-05
7.09876e-05
7.10586e-05
7.11213e-05
7.11884e-05
7.12704e-05
7.13625e-05
7.14449e-05
7.15124e-05
7.15769e-05
7.16487e-05
7.17298e-05
7.18144e-05
7.1892e-05
7.19616e-05
7.20305e-05
7.21009e-05
7.21734e-05
7.22487e-05
7.23253e-05
7.2403e-05
7.24763e-05
7.25402e-05
7.26009e-05
7.26674e-05
7.27467e-05
7.28349e-05
7.29112e-05
7.29708e-05
7.30173e-05
7.30805e-05
7.31586e-05
7.32466e-05
7.33237e-05
7.33825e-05
7.34363e-05
7.34919e-05
7.35575e-05
7.36356e-05
7.37117e-05
7.37806e-05
7.38401e-05
7.38901e-05
7.39473e-05
7.40187e-05
7.40942e-05
7.41658e-05
7.42221e-05
7.42671e-05
7.43241e-05
7.43981e-05
7.44709e-05
7.45274e-05
7.45712e-05
7.46192e-05
7.46879e-05
7.47694e-05
7.48338e-05
7.48724e-05
7.491e-05
7.49667e-05
7.50424e-05
7.5114e-05
7.51652e-05
7.52004e-05
7.52544e-05
7.52661e-05
2.52358e-05
3.07218e-05
2.63303e-05
2.54734e-05
2.8426e-05
3.33048e-05
3.85846e-05
4.34048e-05
4.74595e-05
5.07156e-05
5.32534e-05
5.51979e-05
5.6691e-05
5.78653e-05
5.88223e-05
5.96233e-05
6.03126e-05
6.09207e-05
6.14485e-05
6.19013e-05
6.22883e-05
6.26226e-05
6.29199e-05
6.32059e-05
6.34863e-05
6.3751e-05
6.3992e-05
6.4211e-05
6.44147e-05
6.46076e-05
6.47909e-05
6.49653e-05
6.51328e-05
6.52957e-05
6.54557e-05
6.56116e-05
6.57616e-05
6.59052e-05
6.60431e-05
6.61749e-05
6.63004e-05
6.64205e-05
6.65371e-05
6.66514e-05
6.67647e-05
6.68777e-05
6.69898e-05
6.70997e-05
6.72062e-05
6.73094e-05
6.74103e-05
6.75093e-05
6.76065e-05
6.77029e-05
6.77986e-05
6.7894e-05
6.79898e-05
6.80864e-05
6.8183e-05
6.82789e-05
6.83731e-05
6.84652e-05
6.85551e-05
6.86437e-05
6.87312e-05
6.88181e-05
6.8904e-05
6.89897e-05
6.90757e-05
6.91626e-05
6.92509e-05
6.93393e-05
6.94264e-05
6.95118e-05
6.95948e-05
6.9677e-05
6.97597e-05
6.98436e-05
6.99299e-05
7.00141e-05
7.00943e-05
7.01688e-05
7.02428e-05
7.03251e-05
7.04184e-05
7.05084e-05
7.05848e-05
7.06518e-05
7.07202e-05
7.08028e-05
7.08986e-05
7.09877e-05
7.10591e-05
7.11219e-05
7.11887e-05
7.12702e-05
7.13624e-05
7.14453e-05
7.15129e-05
7.15772e-05
7.16483e-05
7.17291e-05
7.18141e-05
7.18922e-05
7.19618e-05
7.20307e-05
7.21011e-05
7.21736e-05
7.22488e-05
7.2325e-05