/*--------------------------------*- C++ -*----------------------------------*\
  =========                 |
  \\      /  F ield         | OpenFOAM: The Open Source CFD Toolbox
   \\    /   O peration     | Website:  https://openfoam.org
    \\  /    A nd           | Version:  9
     \\/     M anipulation  |
\*---------------------------------------------------------------------------*/
FoamFile
{
    format      ascii;
    class       volScalarField;
    location    "1100";
    object      omega;
}
// * * * * * * * * * * * * * * * * * * * * * * * * * * * * * * * * * * * * * //

dimensions      [0 0 -1 0 0 0 0];

internalField   nonuniform List<scalar> 
329700
(
5856.91
6737.5
6195.54
5943.23
5978.13
6125.61
6268.63
6375.9
6449.66
6498.04
6528.57
6547.54
6559.53
6567.48
6573.12
6577.57
6581.38
6584.5
6586.86
6588.62
6590.07
6591.54
6593.35
6595.58
6598.03
6600.4
6602.63
6604.86
6607.25
6609.87
6612.67
6615.63
6618.77
6622.16
6625.76
6629.44
6633.1
6636.73
6640.37
6644.05
6647.76
6651.54
6655.4
6659.34
6663.41
6667.6
6671.86
6676.15
6680.42
6684.68
6688.97
6693.33
6697.74
6702.21
6706.73
6711.31
6715.97
6720.72
6725.54
6730.4
6735.26
6740.12
6744.98
6749.86
6754.74
6759.65
6764.57
6769.54
6774.59
6779.68
6784.81
6789.94
6795.07
6800.24
6805.42
6810.62
6815.87
6821.13
6826.39
6831.59
6836.75
6841.89
6847.16
6852.63
6858.18
6863.55
6868.66
6873.73
6879.03
6884.63
6890.34
6895.74
6900.74
6905.8
6911.2
6916.84
6922.51
6927.86
6932.91
6938.11
6943.64
6949.26
6954.78
6960.08
6965.26
6970.57
6975.99
6981.39
6986.75
6992.1
6997.5
7002.84
7008
7013.15
7018.52
7024.12
7029.8
7035.08
7039.98
7044.97
7050.3
7055.84
7061.44
7066.67
7071.47
7076.41
7081.7
7087.23
7092.79
7097.97
7102.68
7107.65
7112.98
7118.38
7123.66
7128.68
7133.55
7138.64
7143.9
7149.03
7153.94
7158.86
7163.9
7169.03
7174.13
7179.09
7183.94
7188.9
7193.95
7198.94
7203.84
7208.71
7213.54
7218.34
7223.52
7227.65
7234.48
5857.46
6739.21
6196.71
5943.36
5977.9
6125.5
6268.69
6376.06
6449.85
6498.24
6528.8
6547.77
6559.76
6567.69
6573.32
6577.76
6581.56
6584.67
6587.02
6588.75
6590.19
6591.64
6593.43
6595.66
6598.11
6600.48
6602.7
6604.92
6607.32
6609.95
6612.75
6615.7
6618.83
6622.21
6625.8
6629.47
6633.14
6636.76
6640.4
6644.07
6647.79
6651.56
6655.41
6659.35
6663.41
6667.6
6671.86
6676.15
6680.42
6684.69
6688.98
6693.33
6697.73
6702.2
6706.74
6711.33
6716.01
6720.76
6725.59
6730.43
6735.29
6740.14
6744.99
6749.86
6754.74
6759.66
6764.59
6769.57
6774.63
6779.72
6784.85
6789.99
6795.11
6800.26
6805.43
6810.62
6815.88
6821.13
6826.39
6831.58
6836.72
6841.89
6847.18
6852.65
6858.18
6863.56
6868.7
6873.77
6879.09
6884.68
6890.38
6895.74
6900.74
6905.82
6911.23
6916.88
6922.53
6927.87
6932.92
6938.14
6943.66
6949.27
6954.78
6960.07
6965.25
6970.56
6975.97
6981.38
6986.75
6992.11
6997.5
7002.83
7007.99
7013.16
7018.55
7024.15
7029.79
7035.06
7040.01
7044.98
7050.3
7055.84
7061.44
7066.67
7071.47
7076.4
7081.7
7087.23
7092.78
7097.97
7102.7
7107.66
7112.98
7118.37
7123.68
7128.7
7133.57
7138.63
7143.88
7149.01
7153.96
7158.89
7163.9
7169.01
7174.12
7179.09
7183.96
7188.9
7193.92
7198.92
7203.85
7208.71
7213.52
7218.31
7223.5
7227.64
7234.47
5856.64
6737.34
6195.25
5942.91
5977.87
6125.45
6268.53
6375.84
6449.61
6497.97
6528.5
6547.45
6559.44
6567.38
6573.03
6577.48
6581.29
6584.41
6586.77
6588.52
6589.96
6591.44
6593.25
6595.49
6597.93
6600.31
6602.54
6604.77
6607.18
6609.81
6612.62
6615.57
6618.71
6622.09
6625.68
6629.36
6633.03
6636.66
6640.3
6643.98
6647.7
6651.48
6655.33
6659.26
6663.33
6667.52
6671.78
6676.06
6680.33
6684.6
6688.9
6693.26
6697.68
6702.16
6706.69
6711.27
6715.93
6720.69
6725.52
6730.39
6735.27
6740.14
6745
6749.87
6754.75
6759.66
6764.61
6769.6
6774.65
6779.74
6784.88
6790.02
6795.15
6800.3
6805.46
6810.65
6815.9
6821.17
6826.44
6831.65
6836.78
6841.94
6847.22
6852.68
6858.21
6863.59
6868.72
6873.78
6879.1
6884.72
6890.41
6895.76
6900.75
6905.82
6911.22
6916.89
6922.54
6927.87
6932.93
6938.15
6943.66
6949.28
6954.8
6960.1
6965.28
6970.58
6975.99
6981.4
6986.79
6992.16
6997.55
7002.86
7008.01
7013.18
7018.58
7024.21
7029.84
7035.06
7039.95
7044.99
7050.34
7055.88
7061.48
7066.7
7071.46
7076.4
7081.73
7087.26
7092.82
7097.99
7102.72
7107.67
7112.98
7118.37
7123.7
7128.74
7133.59
7138.63
7143.86
7149.02
7154
7158.93
7163.91
7169
7174.11
7179.11
7183.98
7188.91
7193.9
7198.9
7203.85
7208.73
7213.53
7218.3
7223.48
7227.65
7234.49
5855.83
6735.35
6193.78
5942.57
5978.01
6125.52
6268.41
6375.58
6449.24
6497.53
6528.04
6547.01
6559.03
6567
6572.68
6577.16
6580.98
6584.09
6586.42
6588.14
6589.58
6591.07
6592.91
6595.18
6597.64
6600.01
6602.25
6604.49
6606.91
6609.54
6612.35
6615.32
6618.46
6621.85
6625.45
6629.13
6632.81
6636.45
6640.11
6643.8
6647.53
6651.32
6655.16
6659.11
6663.18
6667.39
6671.66
6675.96
6680.25
6684.52
6688.82
6693.19
6697.6
6702.09
6706.64
6711.25
6715.93
6720.7
6725.52
6730.36
6735.22
6740.07
6744.93
6749.8
6754.7
6759.63
6764.57
6769.57
6774.62
6779.73
6784.88
6790.04
6795.17
6800.32
6805.48
6810.67
6815.93
6821.2
6826.47
6831.67
6836.8
6841.96
6847.25
6852.72
6858.26
6863.63
6868.74
6873.79
6879.13
6884.77
6890.46
6895.8
6900.77
6905.83
6911.24
6916.92
6922.58
6927.9
6932.96
6938.17
6943.69
6949.32
6954.85
6960.14
6965.32
6970.61
6976.01
6981.43
6986.83
6992.22
6997.6
7002.9
7008.05
7013.22
7018.64
7024.26
7029.86
7035.06
7040.01
7045.03
7050.38
7055.9
7061.5
7066.72
7071.47
7076.41
7081.75
7087.28
7092.85
7098.02
7102.76
7107.71
7112.98
7118.36
7123.72
7128.78
7133.64
7138.65
7143.85
7149.01
7154.04
7158.98
7163.93
7168.99
7174.1
7179.12
7184.02
7188.93
7193.89
7198.88
7203.85
7208.75
7213.52
7218.28
7223.46
7227.63
7234.48
5857.38
6738.85
6196.29
5942.88
5977.45
6125.14
6268.41
6375.86
6449.68
6498.07
6528.61
6547.55
6559.52
6567.46
6573.11
6577.57
6581.39
6584.5
6586.83
6588.54
6589.96
6591.43
6593.23
6595.46
6597.9
6600.26
6602.49
6604.72
6607.13
6609.75
6612.56
6615.51
6618.65
6622.03
6625.61
6629.28
6632.95
6636.58
6640.22
6643.9
6647.63
6651.41
6655.25
6659.18
6663.25
6667.44
6671.72
6676.02
6680.3
6684.57
6688.87
6693.23
6697.65
6702.13
6706.67
6711.28
6715.95
6720.72
6725.53
6730.38
6735.23
6740.09
6744.95
6749.82
6754.71
6759.63
6764.56
6769.55
6774.59
6779.69
6784.83
6789.99
6795.13
6800.29
6805.45
6810.64
6815.9
6821.18
6826.45
6831.66
6836.8
6841.94
6847.23
6852.71
6858.29
6863.67
6868.72
6873.76
6879.11
6884.77
6890.48
6895.82
6900.79
6905.84
6911.25
6916.93
6922.59
6927.9
6932.94
6938.15
6943.68
6949.32
6954.85
6960.15
6965.33
6970.63
6976.03
6981.44
6986.84
6992.23
6997.62
7002.91
7008.05
7013.23
7018.65
7024.28
7029.87
7035.05
7040
7045.05
7050.4
7055.91
7061.51
7066.72
7071.46
7076.42
7081.78
7087.3
7092.86
7098.02
7102.77
7107.72
7112.99
7118.38
7123.74
7128.8
7133.65
7138.65
7143.84
7149.03
7154.08
7159
7163.92
7168.97
7174.11
7179.16
7184.05
7188.91
7193.84
7198.87
7203.89
7208.8
7213.54
7218.25
7223.44
7227.66
7234.52
5855.83
6735.36
6193.78
5942.53
5977.96
6125.48
6268.38
6375.57
6449.24
6497.53
6528.03
6546.99
6558.99
6566.96
6572.65
6577.16
6581.01
6584.12
6586.44
6588.14
6589.58
6591.07
6592.92
6595.18
6597.64
6600.02
6602.26
6604.51
6606.92
6609.54
6612.35
6615.32
6618.47
6621.86
6625.46
6629.14
6632.81
6636.45
6640.09
6643.78
6647.51
6651.3
6655.15
6659.1
6663.18
6667.38
6671.66
6675.96
6680.24
6684.51
6688.81
6693.16
6697.58
6702.06
6706.62
6711.23
6715.93
6720.7
6725.53
6730.37
6735.22
6740.08
6744.95
6749.83
6754.72
6759.63
6764.55
6769.52
6774.57
6779.66
6784.81
6789.96
6795.1
6800.26
6805.42
6810.61
6815.87
6821.13
6826.4
6831.61
6836.76
6841.9
6847.19
6852.69
6858.29
6863.66
6868.71
6873.77
6879.13
6884.79
6890.49
6895.84
6900.81
6905.86
6911.26
6916.93
6922.57
6927.89
6932.94
6938.16
6943.67
6949.3
6954.83
6960.14
6965.33
6970.62
6976.02
6981.42
6986.82
6992.23
6997.61
7002.9
7008.03
7013.22
7018.65
7024.28
7029.85
7035.02
7039.96
7045.03
7050.42
7055.94
7061.51
7066.72
7071.48
7076.46
7081.82
7087.31
7092.84
7098.01
7102.8
7107.76
7113
7118.37
7123.74
7128.82
7133.69
7138.67
7143.83
7149
7154.09
7159.04
7163.93
7168.96
7174.09
7179.16
7184.09
7188.95
7193.84
7198.85
7203.89
7208.81
7213.56
7218.26
7223.44
7227.65
7234.51
5856.64
6737.33
6195.19
5942.8
5977.74
6125.35
6268.46
6375.8
6449.58
6497.95
6528.46
6547.4
6559.38
6567.33
6572.98
6577.45
6581.28
6584.4
6586.75
6588.48
6589.92
6591.4
6593.22
6595.46
6597.9
6600.26
6602.49
6604.73
6607.14
6609.77
6612.57
6615.53
6618.67
6622.06
6625.64
6629.32
6632.99
6636.62
6640.27
6643.95
6647.67
6651.45
6655.3
6659.24
6663.3
6667.48
6671.75
6676.04
6680.33
6684.59
6688.89
6693.25
6697.67
6702.15
6706.7
6711.3
6715.97
6720.73
6725.54
6730.38
6735.23
6740.07
6744.92
6749.79
6754.69
6759.62
6764.58
6769.57
6774.62
6779.7
6784.83
6789.96
6795.09
6800.24
6805.4
6810.59
6815.85
6821.11
6826.38
6831.58
6836.74
6841.89
6847.18
6852.67
6858.26
6863.63
6868.69
6873.77
6879.13
6884.77
6890.46
6895.82
6900.82
6905.88
6911.26
6916.91
6922.55
6927.87
6932.94
6938.15
6943.66
6949.27
6954.79
6960.12
6965.32
6970.61
6976
6981.39
6986.8
6992.2
6997.59
7002.87
7008.01
7013.2
7018.65
7024.28
7029.84
7035
7039.96
7045.02
7050.42
7055.96
7061.52
7066.72
7071.49
7076.47
7081.82
7087.3
7092.82
7098
7102.82
7107.79
7113
7118.34
7123.71
7128.83
7133.74
7138.71
7143.82
7148.98
7154.1
7159.08
7163.96
7168.94
7174.06
7179.15
7184.11
7188.98
7193.84
7198.82
7203.88
7208.84
7213.6
7218.28
7223.43
7227.65
7234.52
5857.33
6738.81
6196.28
5943
5977.62
6125.27
6268.5
6375.91
6449.71
6498.1
6528.64
6547.59
6559.57
6567.51
6573.16
6577.63
6581.45
6584.57
6586.9
6588.62
6590.06
6591.53
6593.33
6595.56
6597.99
6600.35
6602.58
6604.82
6607.23
6609.85
6612.66
6615.62
6618.76
6622.14
6625.72
6629.39
6633.05
6636.69
6640.33
6644.01
6647.73
6651.5
6655.35
6659.29
6663.35
6667.55
6671.82
6676.11
6680.38
6684.65
6688.95
6693.31
6697.72
6702.19
6706.73
6711.33
6716
6720.76
6725.58
6730.42
6735.26
6740.1
6744.95
6749.82
6754.71
6759.63
6764.57
6769.57
6774.62
6779.71
6784.84
6789.98
6795.12
6800.28
6805.44
6810.62
6815.87
6821.12
6826.39
6831.59
6836.75
6841.88
6847.17
6852.67
6858.27
6863.64
6868.68
6873.75
6879.11
6884.76
6890.45
6895.81
6900.8
6905.86
6911.25
6916.91
6922.55
6927.87
6932.95
6938.18
6943.68
6949.29
6954.81
6960.13
6965.33
6970.61
6975.98
6981.37
6986.79
6992.21
6997.59
7002.86
7007.99
7013.19
7018.66
7024.3
7029.85
7034.99
7039.97
7045.04
7050.46
7056
7061.52
7066.71
7071.52
7076.54
7081.87
7087.3
7092.78
7097.98
7102.86
7107.84
7113
7118.31
7123.69
7128.84
7133.78
7138.73
7143.8
7148.95
7154.12
7159.12
7163.97
7168.93
7174.04
7179.15
7184.16
7189.02
7193.82
7198.79
7203.87
7208.85
7213.62
7218.29
7223.41
7227.63
7234.52
5856.04
6735.89
6194.24
5942.77
5978.06
6125.53
6268.47
6375.68
6449.41
6497.76
6528.27
6547.21
6559.19
6567.14
6572.81
6577.3
6581.15
6584.3
6586.68
6588.45
6589.93
6591.43
6593.26
6595.49
6597.93
6600.31
6602.56
6604.81
6607.22
6609.84
6612.65
6615.62
6618.76
6622.15
6625.72
6629.39
6633.05
6636.67
6640.31
6643.99
6647.71
6651.47
6655.31
6659.25
6663.32
6667.52
6671.79
6676.08
6680.35
6684.61
6688.9
6693.25
6697.67
6702.15
6706.69
6711.3
6715.98
6720.74
6725.56
6730.4
6735.24
6740.08
6744.92
6749.78
6754.68
6759.6
6764.56
6769.56
6774.61
6779.7
6784.83
6789.98
6795.12
6800.28
6805.44
6810.62
6815.87
6821.12
6826.37
6831.57
6836.73
6841.87
6847.16
6852.65
6858.24
6863.6
6868.65
6873.74
6879.11
6884.74
6890.43
6895.77
6900.78
6905.85
6911.25
6916.89
6922.52
6927.84
6932.92
6938.16
6943.66
6949.25
6954.77
6960.1
6965.32
6970.61
6975.96
6981.35
6986.78
6992.21
6997.59
7002.85
7007.98
7013.19
7018.67
7024.31
7029.85
7034.97
7039.98
7045.06
7050.48
7056.02
7061.51
7066.67
7071.5
7076.54
7081.89
7087.31
7092.75
7097.94
7102.86
7107.88
7113.02
7118.28
7123.64
7128.83
7133.82
7138.77
7143.78
7148.91
7154.12
7159.17
7164.01
7168.9
7173.98
7179.13
7184.19
7189.07
7193.81
7198.72
7203.82
7208.87
7213.67
7218.32
7223.39
7227.6
7234.51
5856.56
6737.24
6195.24
5942.98
5977.94
6125.5
6268.57
6375.86
6449.62
6497.99
6528.52
6547.47
6559.48
6567.44
6573.12
6577.59
6581.43
6584.56
6586.91
6588.65
6590.1
6591.56
6593.36
6595.57
6597.99
6600.35
6602.56
6604.78
6607.17
6609.78
6612.57
6615.52
6618.65
6622.01
6625.58
6629.23
6632.89
6636.52
6640.17
6643.85
6647.57
6651.34
6655.19
6659.14
6663.2
6667.39
6671.66
6675.95
6680.23
6684.5
6688.81
6693.2
6697.64
6702.14
6706.69
6711.29
6715.96
6720.71
6725.52
6730.36
6735.2
6740.04
6744.89
6749.75
6754.63
6759.54
6764.48
6769.47
6774.53
6779.63
6784.79
6789.95
6795.12
6800.3
6805.46
6810.64
6815.87
6821.12
6826.38
6831.58
6836.74
6841.88
6847.17
6852.66
6858.23
6863.59
6868.64
6873.74
6879.11
6884.73
6890.41
6895.75
6900.76
6905.86
6911.26
6916.89
6922.5
6927.81
6932.91
6938.16
6943.67
6949.25
6954.75
6960.08
6965.31
6970.6
6975.95
6981.34
6986.78
6992.2
6997.59
7002.84
7007.96
7013.19
7018.68
7024.31
7029.82
7034.98
7039.88
7045.02
7050.49
7056.01
7061.47
7066.64
7071.5
7076.57
7081.9
7087.28
7092.69
7097.9
7102.88
7107.91
7113.01
7118.23
7123.6
7128.82
7133.84
7138.78
7143.74
7148.87
7154.12
7159.19
7164.01
7168.87
7173.94
7179.12
7184.23
7189.1
7193.78
7198.67
7203.8
7208.88
7213.69
7218.33
7223.35
7227.56
7234.5
5857.48
6739.35
6196.87
5943.43
5977.91
6125.5
6268.7
6376.09
6449.88
6498.29
6528.83
6547.8
6559.78
6567.72
6573.36
6577.81
6581.62
6584.73
6587.06
6588.79
6590.21
6591.67
6593.47
6595.69
6598.11
6600.47
6602.69
6604.91
6607.3
6609.91
6612.7
6615.66
6618.81
6622.2
6625.77
6629.44
6633.1
6636.73
6640.37
6644.04
6647.76
6651.51
6655.36
6659.3
6663.37
6667.56
6671.83
6676.12
6680.4
6684.66
6688.96
6693.33
6697.76
6702.24
6706.78
6711.37
6716.04
6720.78
6725.59
6730.42
6735.26
6740.1
6744.94
6749.8
6754.7
6759.62
6764.57
6769.56
6774.6
6779.69
6784.83
6789.98
6795.13
6800.29
6805.45
6810.63
6815.87
6821.13
6826.38
6831.58
6836.74
6841.88
6847.18
6852.65
6858.22
6863.6
6868.67
6873.79
6879.16
6884.75
6890.4
6895.75
6900.76
6905.88
6911.29
6916.89
6922.49
6927.8
6932.9
6938.16
6943.67
6949.22
6954.71
6960.04
6965.28
6970.6
6975.96
6981.34
6986.77
6992.19
6997.57
7002.84
7007.97
7013.2
7018.68
7024.28
7029.8
7035.37
7039.49
7044.88
7050.5
7055.98
7061.42
7066.61
7071.5
7076.58
7081.9
7087.26
7092.66
7097.87
7102.88
7107.92
7113
7118.21
7123.58
7128.81
7133.86
7138.79
7143.72
7148.83
7154.11
7159.21
7164.01
7168.84
7173.89
7179.1
7184.26
7189.13
7193.76
7198.6
7203.76
7208.91
7213.75
7218.34
7223.31
7227.52
7234.5
5856.52
6737.48
6195.54
5943.24
5978.14
6125.63
6268.65
6375.92
6449.69
6498.07
6528.6
6547.55
6559.55
6567.49
6573.15
6577.6
6581.42
6584.54
6586.9
6588.65
6590.1
6591.58
6593.39
6595.63
6598.08
6600.46
6602.69
6604.92
6607.31
6609.93
6612.74
6615.71
6618.87
6622.26
6625.84
6629.5
6633.17
6636.8
6640.44
6644.11
6647.82
6651.59
6655.43
6659.37
6663.44
6667.64
6671.91
6676.2
6680.47
6684.72
6689.01
6693.36
6697.76
6702.22
6706.74
6711.33
6716.01
6720.78
6725.6
6730.44
6735.3
6740.15
6745
6749.86
6754.74
6759.66
6764.6
6769.58
6774.62
6779.7
6784.83
6789.98
6795.14
6800.3
6805.46
6810.64
6815.87
6821.1
6826.34
6831.54
6836.71
6841.87
6847.17
6852.62
6858.18
6863.56
6868.65
6873.8
6879.17
6884.73
6890.36
6895.71
6900.75
6905.9
6911.31
6916.88
6922.45
6927.78
6932.9
6938.18
6943.67
6949.2
6954.68
6960.02
6965.27
6970.6
6975.97
6981.34
6986.77
6992.17
6997.55
7002.83
7007.97
7013.21
7018.69
7024.25
7029.75
7035.02
7039.78
7044.94
7050.47
7055.97
7061.4
7066.58
7071.48
7076.58
7081.89
7087.24
7092.63
7097.86
7102.89
7107.93
7112.98
7118.17
7123.55
7128.81
7133.87
7138.78
7143.67
7148.8
7154.11
7159.22
7164
7168.79
7173.85
7179.1
7184.3
7189.15
7193.73
7198.56
7203.74
7208.91
7213.77
7218.35
7223.29
7227.5
7234.49
5857.41
6739.08
6196.66
5943.49
5978.12
6125.68
6268.84
6376.18
6449.95
6498.33
6528.86
6547.81
6559.79
6567.71
6573.35
6577.8
6581.61
6584.72
6587.04
6588.77
6590.2
6591.66
6593.46
6595.68
6598.1
6600.46
6602.68
6604.9
6607.29
6609.9
6612.7
6615.66
6618.82
6622.21
6625.79
6629.45
6633.1
6636.73
6640.36
6644.04
6647.75
6651.52
6655.36
6659.29
6663.36
6667.55
6671.83
6676.12
6680.4
6684.66
6688.95
6693.31
6697.72
6702.2
6706.72
6711.31
6715.98
6720.75
6725.57
6730.41
6735.25
6740.08
6744.92
6749.76
6754.64
6759.55
6764.49
6769.49
6774.54
6779.63
6784.77
6789.92
6795.06
6800.21
6805.36
6810.54
6815.78
6821.03
6826.28
6831.49
6836.68
6841.84
6847.15
6852.59
6858.14
6863.51
6868.61
6873.76
6879.13
6884.69
6890.31
6895.67
6900.72
6905.88
6911.3
6916.87
6922.44
6927.76
6932.89
6938.17
6943.66
6949.19
6954.66
6960
6965.26
6970.59
6975.96
6981.33
6986.76
6992.17
6997.55
7002.83
7007.96
7013.19
7018.66
7024.23
7029.73
7034.91
7039.86
7044.94
7050.45
7055.95
7061.39
7066.57
7071.48
7076.58
7081.88
7087.22
7092.62
7097.84
7102.88
7107.94
7112.97
7118.16
7123.53
7128.79
7133.85
7138.77
7143.66
7148.78
7154.09
7159.2
7163.98
7168.79
7173.85
7179.1
7184.3
7189.14
7193.71
7198.54
7203.74
7208.94
7213.8
7218.36
7223.28
7227.5
7234.5
5856.51
6737.47
6195.57
5943.29
5978.18
6125.64
6268.66
6375.93
6449.7
6498.09
6528.62
6547.58
6559.57
6567.5
6573.13
6577.56
6581.35
6584.45
6586.78
6588.51
6589.95
6591.41
6593.18
6595.38
6597.79
6600.13
6602.34
6604.56
6606.97
6609.6
6612.43
6615.43
6618.61
6622
6625.58
6629.25
6632.92
6636.57
6640.23
6643.92
6647.64
6651.42
6655.26
6659.2
6663.27
6667.47
6671.75
6676.04
6680.32
6684.58
6688.88
6693.23
6697.64
6702.12
6706.65
6711.25
6715.94
6720.71
6725.52
6730.36
6735.2
6740.04
6744.87
6749.73
6754.61
6759.53
6764.49
6769.48
6774.53
6779.63
6784.77
6789.93
6795.08
6800.24
6805.4
6810.57
6815.8
6821.04
6826.28
6831.48
6836.66
6841.83
6847.13
6852.58
6858.13
6863.52
6868.63
6873.78
6879.15
6884.7
6890.33
6895.7
6900.77
6905.93
6911.34
6916.91
6922.47
6927.79
6932.91
6938.18
6943.66
6949.18
6954.66
6960.01
6965.28
6970.61
6975.98
6981.35
6986.77
6992.18
6997.56
7002.84
7007.99
7013.21
7018.66
7024.21
7029.7
7034.89
7039.87
7044.96
7050.44
7055.93
7061.37
7066.56
7071.48
7076.58
7081.86
7087.2
7092.62
7097.85
7102.89
7107.92
7112.94
7118.13
7123.53
7128.8
7133.84
7138.74
7143.63
7148.77
7154.11
7159.21
7163.96
7168.75
7173.83
7179.11
7184.33
7189.16
7193.7
7198.52
7203.74
7208.95
7213.82
7218.37
7223.28
7227.49
7234.5
5857.41
6739.06
6196.64
5943.47
5978.11
6125.69
6268.85
6376.19
6449.96
6498.33
6528.86
6547.81
6559.77
6567.68
6573.29
6577.7
6581.48
6584.55
6586.86
6588.57
6589.99
6591.43
6593.2
6595.38
6597.78
6600.11
6602.31
6604.53
6606.94
6609.57
6612.4
6615.4
6618.57
6621.98
6625.55
6629.2
6632.86
6636.5
6640.16
6643.85
6647.58
6651.38
6655.25
6659.23
6663.33
6667.55
6671.81
6676.08
6680.32
6684.55
6688.82
6693.17
6697.58
6702.06
6706.6
6711.21
6715.9
6720.66
6725.48
6730.32
6735.16
6739.99
6744.82
6749.66
6754.54
6759.46
6764.43
6769.45
6774.52
6779.65
6784.8
6789.97
6795.13
6800.29
6805.44
6810.6
6815.81
6821.04
6826.29
6831.5
6836.68
6841.85
6847.16
6852.61
6858.16
6863.53
6868.64
6873.78
6879.15
6884.72
6890.34
6895.7
6900.76
6905.92
6911.33
6916.9
6922.46
6927.77
6932.9
6938.17
6943.66
6949.19
6954.67
6960.02
6965.28
6970.61
6975.98
6981.36
6986.78
6992.19
6997.56
7002.83
7007.97
7013.2
7018.65
7024.2
7029.69
7034.88
7039.89
7044.94
7050.4
7055.88
7061.33
7066.56
7071.5
7076.59
7081.85
7087.18
7092.6
7097.86
7102.9
7107.92
7112.92
7118.11
7123.53
7128.8
7133.83
7138.72
7143.62
7148.78
7154.12
7159.2
7163.94
7168.74
7173.84
7179.13
7184.33
7189.15
7193.68
7198.52
7203.75
7208.96
7213.81
7218.36
7223.27
7227.5
7234.51
5856.51
6737.47
6195.56
5943.28
5978.18
6125.65
6268.66
6375.94
6449.7
6498.08
6528.61
6547.57
6559.55
6567.49
6573.12
6577.55
6581.34
6584.43
6586.76
6588.49
6589.92
6591.37
6593.14
6595.34
6597.74
6600.08
6602.28
6604.51
6606.91
6609.56
6612.39
6615.39
6618.57
6621.97
6625.54
6629.19
6632.85
6636.5
6640.16
6643.86
6647.6
6651.4
6655.28
6659.25
6663.34
6667.55
6671.83
6676.1
6680.35
6684.59
6688.85
6693.19
6697.58
6702.05
6706.59
6711.2
6715.88
6720.65
6725.48
6730.32
6735.16
6739.99
6744.81
6749.65
6754.53
6759.45
6764.41
6769.43
6774.51
6779.63
6784.79
6789.96
6795.11
6800.28
6805.44
6810.62
6815.85
6821.08
6826.32
6831.52
6836.7
6841.88
6847.17
6852.62
6858.16
6863.54
6868.65
6873.8
6879.16
6884.72
6890.34
6895.7
6900.76
6905.92
6911.32
6916.89
6922.46
6927.78
6932.9
6938.16
6943.64
6949.18
6954.67
6960.03
6965.29
6970.61
6975.98
6981.36
6986.78
6992.17
6997.54
7002.82
7007.98
7013.21
7018.64
7024.17
7029.67
7034.89
7039.89
7044.93
7050.36
7055.85
7061.33
7066.56
7071.5
7076.57
7081.83
7087.16
7092.62
7097.88
7102.88
7107.88
7112.9
7118.11
7123.54
7128.8
7133.8
7138.69
7143.62
7148.79
7154.11
7159.18
7163.92
7168.73
7173.86
7179.13
7184.31
7189.12
7193.69
7198.53
7203.75
7208.95
7213.8
7218.35
7223.28
7227.5
7234.51
5857.41
6739.06
6196.63
5943.47
5978.11
6125.69
6268.85
6376.19
6449.94
6498.32
6528.85
6547.8
6559.77
6567.67
6573.28
6577.7
6581.47
6584.54
6586.85
6588.57
6589.99
6591.42
6593.18
6595.37
6597.77
6600.1
6602.31
6604.52
6606.92
6609.56
6612.39
6615.39
6618.56
6621.96
6625.54
6629.19
6632.86
6636.51
6640.18
6643.88
6647.62
6651.38
6655.23
6659.17
6663.25
6667.45
6671.71
6675.99
6680.24
6684.48
6688.75
6693.09
6697.51
6702
6706.57
6711.2
6715.9
6720.69
6725.53
6730.38
6735.21
6740.02
6744.82
6749.64
6754.49
6759.4
6764.37
6769.41
6774.5
6779.64
6784.81
6789.98
6795.14
6800.3
6805.46
6810.62
6815.83
6821.06
6826.3
6831.51
6836.69
6841.86
6847.16
6852.59
6858.13
6863.51
6868.62
6873.77
6879.15
6884.69
6890.3
6895.67
6900.73
6905.89
6911.3
6916.86
6922.42
6927.75
6932.89
6938.16
6943.66
6949.2
6954.68
6960.04
6965.29
6970.61
6975.99
6981.37
6986.78
6992.16
6997.52
7002.81
7007.97
7013.22
7018.64
7024.16
7029.65
7034.9
7039.88
7044.95
7050.35
7055.83
7061.32
7066.57
7071.52
7076.59
7081.82
7087.15
7092.63
7097.91
7102.89
7107.85
7112.86
7118.09
7123.55
7128.8
7133.77
7138.65
7143.61
7148.81
7154.11
7159.14
7163.88
7168.73
7173.88
7179.14
7184.28
7189.08
7193.68
7198.56
7203.76
7208.91
7213.75
7218.33
7223.29
7227.51
7234.49
5856.52
6737.5
6195.58
5943.28
5978.15
6125.61
6268.64
6375.91
6449.68
6498.06
6528.59
6547.55
6559.54
6567.47
6573.11
6577.53
6581.32
6584.41
6586.74
6588.47
6589.91
6591.36
6593.13
6595.32
6597.72
6600.06
6602.27
6604.49
6606.88
6609.51
6612.34
6615.33
6618.5
6621.9
6625.47
6629.13
6632.8
6636.45
6640.12
6643.82
6647.57
6651.36
6655.22
6659.17
6663.26
6667.46
6671.73
6676.01
6680.26
6684.5
6688.76
6693.09
6697.49
6701.97
6706.52
6711.14
6715.84
6720.62
6725.47
6730.32
6735.15
6739.98
6744.79
6749.62
6754.48
6759.4
6764.38
6769.42
6774.52
6779.66
6784.83
6790
6795.16
6800.32
6805.47
6810.64
6815.85
6821.07
6826.31
6831.5
6836.68
6841.85
6847.15
6852.58
6858.11
6863.49
6868.6
6873.76
6879.13
6884.66
6890.27
6895.65
6900.71
6905.88
6911.3
6916.85
6922.42
6927.76
6932.9
6938.17
6943.66
6949.2
6954.68
6960.04
6965.29
6970.61
6976
6981.38
6986.78
6992.15
6997.5
7002.81
7007.99
7013.23
7018.64
7024.14
7029.66
7035
7039.85
7044.95
7050.34
7055.83
7061.35
7066.61
7071.52
7076.57
7081.8
7087.14
7092.66
7097.92
7102.85
7107.8
7112.84
7118.1
7123.56
7128.78
7133.72
7138.62
7143.63
7148.82
7154.07
7159.09
7163.86
7168.75
7173.9
7179.13
7184.21
7189.02
7193.7
7198.6
7203.76
7208.88
7213.71
7218.31
7223.31
7227.52
7234.48
5857.26
6738.56
6196.16
5943.31
5978.13
6125.72
6268.85
6376.15
6449.88
6498.24
6528.76
6547.69
6559.65
6567.55
6573.16
6577.57
6581.35
6584.42
6586.72
6588.43
6589.86
6591.32
6593.12
6595.33
6597.72
6600.05
6602.26
6604.47
6606.86
6609.47
6612.28
6615.26
6618.43
6621.82
6625.41
6629.08
6632.76
6636.42
6640.09
6643.79
6647.53
6651.31
6655.16
6659.11
6663.19
6667.39
6671.66
6675.94
6680.19
6684.43
6688.7
6693.05
6697.46
6701.96
6706.52
6711.15
6715.85
6720.64
6725.49
6730.34
6735.18
6739.99
6744.8
6749.63
6754.5
6759.41
6764.38
6769.41
6774.49
6779.61
6784.77
6789.94
6795.1
6800.26
6805.42
6810.59
6815.8
6821.02
6826.25
6831.44
6836.61
6841.8
6847.11
6852.53
6858.07
6863.46
6868.59
6873.76
6879.14
6884.67
6890.27
6895.64
6900.71
6905.87
6911.28
6916.83
6922.4
6927.74
6932.88
6938.16
6943.67
6949.21
6954.7
6960.05
6965.27
6970.59
6975.99
6981.38
6986.77
6992.13
6997.47
7002.78
7007.98
7013.23
7018.64
7024.13
7029.65
7035.33
7039.58
7044.84
7050.36
7055.78
7061.3
7066.62
7071.55
7076.58
7081.79
7087.12
7092.66
7097.94
7102.83
7107.74
7112.79
7118.09
7123.56
7128.77
7133.67
7138.58
7143.63
7148.84
7154.04
7159.02
7163.82
7168.76
7173.94
7179.11
7184.13
7188.96
7193.71
7198.66
7203.78
7208.81
7213.61
7218.28
7223.34
7227.52
7234.44
5856.52
6737.5
6195.58
5943.27
5978.13
6125.58
6268.63
6375.91
6449.68
6498.07
6528.59
6547.54
6559.53
6567.46
6573.1
6577.53
6581.32
6584.42
6586.74
6588.47
6589.9
6591.35
6593.14
6595.34
6597.73
6600.06
6602.28
6604.49
6606.88
6609.5
6612.34
6615.35
6618.54
6621.94
6625.53
6629.2
6632.89
6636.54
6640.19
6643.87
6647.59
6651.38
6655.27
6659.25
6663.36
6667.57
6671.84
6676.11
6680.35
6684.57
6688.83
6693.16
6697.56
6702.04
6706.59
6711.19
6715.88
6720.66
6725.49
6730.34
6735.18
6740.01
6744.84
6749.67
6754.53
6759.44
6764.4
6769.42
6774.51
6779.64
6784.79
6789.95
6795.1
6800.26
6805.42
6810.59
6815.8
6821.02
6826.25
6831.45
6836.64
6841.81
6847.12
6852.55
6858.09
6863.48
6868.61
6873.78
6879.16
6884.69
6890.31
6895.68
6900.74
6905.9
6911.31
6916.87
6922.45
6927.79
6932.91
6938.18
6943.69
6949.24
6954.72
6960.05
6965.28
6970.6
6976.02
6981.41
6986.78
6992.12
6997.46
7002.77
7007.97
7013.22
7018.61
7024.11
7029.66
7035.02
7039.86
7044.9
7050.31
7055.8
7061.36
7066.65
7071.52
7076.53
7081.75
7087.12
7092.7
7097.96
7102.79
7107.68
7112.78
7118.11
7123.57
7128.75
7133.63
7138.56
7143.65
7148.85
7154
7158.97
7163.82
7168.8
7173.96
7179.1
7184.07
7188.92
7193.75
7198.71
7203.77
7208.77
7213.58
7218.27
7223.36
7227.53
7234.43
5857.41
6739.06
6196.63
5943.46
5978.08
6125.65
6268.84
6376.19
6449.95
6498.33
6528.86
6547.81
6559.77
6567.68
6573.3
6577.72
6581.5
6584.57
6586.87
6588.57
6590
6591.46
6593.27
6595.48
6597.88
6600.2
6602.41
6604.64
6607.04
6609.64
6612.44
6615.4
6618.55
6621.95
6625.56
6629.26
6632.96
6636.65
6640.33
6644.03
6647.75
6651.53
6655.36
6659.29
6663.34
6667.52
6671.79
6676.08
6680.36
6684.61
6688.88
6693.23
6697.63
6702.11
6706.65
6711.25
6715.93
6720.71
6725.55
6730.4
6735.24
6740.07
6744.89
6749.71
6754.57
6759.49
6764.46
6769.48
6774.56
6779.67
6784.81
6789.97
6795.11
6800.27
6805.43
6810.6
6815.83
6821.06
6826.29
6831.49
6836.67
6841.85
6847.17
6852.6
6858.13
6863.51
6868.62
6873.79
6879.18
6884.73
6890.34
6895.7
6900.75
6905.91
6911.32
6916.88
6922.46
6927.8
6932.93
6938.2
6943.72
6949.26
6954.74
6960.07
6965.29
6970.62
6976.05
6981.44
6986.8
6992.13
6997.47
7002.79
7007.99
7013.23
7018.61
7024.1
7029.65
7034.93
7039.92
7044.9
7050.3
7055.79
7061.37
7066.67
7071.53
7076.51
7081.73
7087.12
7092.73
7097.99
7102.78
7107.66
7112.78
7118.14
7123.6
7128.75
7133.62
7138.58
7143.71
7148.88
7153.97
7158.93
7163.84
7168.89
7174.03
7179.06
7183.97
7188.89
7193.82
7198.81
7203.78
7208.68
7213.48
7218.27
7223.41
7227.54
7234.38
5856.51
6737.44
6195.5
5943.22
5978.11
6125.58
6268.64
6375.92
6449.69
6498.06
6528.57
6547.51
6559.5
6567.44
6573.1
6577.56
6581.38
6584.5
6586.84
6588.57
6590.01
6591.5
6593.32
6595.56
6597.98
6600.34
6602.57
6604.8
6607.19
6609.8
6612.6
6615.56
6618.71
6622.1
6625.7
6629.38
6633.05
6636.68
6640.32
6643.99
6647.72
6651.51
6655.37
6659.32
6663.38
6667.57
6671.83
6676.11
6680.38
6684.62
6688.9
6693.24
6697.66
6702.14
6706.68
6711.27
6715.94
6720.69
6725.52
6730.37
6735.23
6740.08
6744.93
6749.78
6754.64
6759.54
6764.5
6769.51
6774.58
6779.67
6784.8
6789.95
6795.1
6800.27
6805.44
6810.62
6815.85
6821.08
6826.32
6831.52
6836.7
6841.87
6847.18
6852.63
6858.17
6863.54
6868.63
6873.76
6879.14
6884.7
6890.33
6895.7
6900.74
6905.88
6911.31
6916.9
6922.49
6927.83
6932.94
6938.2
6943.72
6949.28
6954.76
6960.08
6965.3
6970.64
6976.08
6981.47
6986.82
6992.14
6997.49
7002.82
7008.02
7013.23
7018.59
7024.11
7029.68
7034.96
7039.98
7044.91
7050.29
7055.8
7061.41
7066.71
7071.53
7076.5
7081.73
7087.14
7092.78
7098.02
7102.78
7107.66
7112.81
7118.18
7123.63
7128.76
7133.62
7138.6
7143.77
7148.93
7153.97
7158.91
7163.88
7168.95
7174.07
7179.07
7183.95
7188.87
7193.87
7198.87
7203.79
7208.67
7213.48
7218.27
7223.44
7227.56
7234.39
5857.45
6739.2
6196.71
5943.37
5977.9
6125.48
6268.71
6376.09
6449.88
6498.28
6528.82
6547.77
6559.74
6567.65
6573.28
6577.7
6581.49
6584.57
6586.86
6588.56
6589.99
6591.46
6593.27
6595.49
6597.88
6600.21
6602.42
6604.65
6607.04
6609.65
6612.44
6615.41
6618.58
6622
6625.62
6629.32
6633
6636.63
6640.27
6643.95
6647.7
6651.53
6655.43
6659.4
6663.47
6667.63
6671.86
6676.11
6680.37
6684.62
6688.91
6693.26
6697.68
6702.15
6706.69
6711.28
6715.96
6720.73
6725.56
6730.41
6735.25
6740.08
6744.92
6749.77
6754.63
6759.54
6764.5
6769.51
6774.57
6779.68
6784.81
6789.96
6795.1
6800.27
6805.43
6810.62
6815.84
6821.08
6826.31
6831.5
6836.69
6841.87
6847.2
6852.66
6858.2
6863.54
6868.61
6873.74
6879.13
6884.71
6890.34
6895.69
6900.73
6905.89
6911.32
6916.92
6922.51
6927.84
6932.95
6938.22
6943.74
6949.31
6954.78
6960.09
6965.31
6970.65
6976.09
6981.5
6986.85
6992.17
6997.51
7002.83
7008.03
7013.25
7018.62
7024.14
7029.71
7034.99
7039.99
7044.91
7050.29
7055.79
7061.4
7066.73
7071.56
7076.51
7081.74
7087.15
7092.79
7098.04
7102.8
7107.68
7112.85
7118.23
7123.65
7128.76
7133.63
7138.64
7143.83
7148.97
7153.96
7158.89
7163.9
7169.02
7174.13
7179.06
7183.9
7188.86
7193.93
7198.94
7203.82
7208.62
7213.44
7218.29
7223.5
7227.58
7234.37
5856.63
6737.34
6195.28
5942.95
5977.9
6125.46
6268.56
6375.86
6449.63
6498.01
6528.53
6547.47
6559.45
6567.38
6573.02
6577.46
6581.26
6584.35
6586.67
6588.38
6589.82
6591.3
6593.12
6595.35
6597.75
6600.09
6602.3
6604.54
6606.95
6609.56
6612.35
6615.31
6618.49
6621.93
6625.57
6629.28
6632.96
6636.6
6640.25
6643.94
6647.7
6651.52
6655.4
6659.35
6663.4
6667.55
6671.78
6676.05
6680.31
6684.56
6688.85
6693.2
6697.61
6702.09
6706.61
6711.2
6715.86
6720.62
6725.45
6730.3
6735.17
6740.03
6744.88
6749.73
6754.59
6759.49
6764.43
6769.42
6774.47
6779.57
6784.71
6789.87
6795.04
6800.22
6805.41
6810.6
6815.85
6821.1
6826.34
6831.53
6836.71
6841.87
6847.18
6852.65
6858.21
6863.57
6868.64
6873.76
6879.14
6884.73
6890.37
6895.74
6900.78
6905.91
6911.33
6916.94
6922.53
6927.85
6932.95
6938.21
6943.73
6949.31
6954.79
6960.11
6965.32
6970.66
6976.11
6981.51
6986.85
6992.18
6997.53
7002.87
7008.07
7013.27