/*--------------------------------*- C++ -*----------------------------------*\
  =========                 |
  \\      /  F ield         | OpenFOAM: The Open Source CFD Toolbox
   \\    /   O peration     | Website:  https://openfoam.org
    \\  /    A nd           | Version:  9
     \\/     M anipulation  |
\*---------------------------------------------------------------------------*/
FoamFile
{
    format      ascii;
    class       volScalarField;
    location    "1100";
    object      p;
}
// * * * * * * * * * * * * * * * * * * * * * * * * * * * * * * * * * * * * * //

dimensions      [0 2 -2 0 0 0 0];

internalField   nonuniform List<scalar> 
329700
(
2.67697
1.70716
1.43811
1.41653
1.39404
1.37002
1.34667
1.31621
1.27865
1.23882
1.20068
1.16468
1.13025
1.09875
1.07037
1.04415
1.01969
0.997017
0.975899
0.955574
0.936003
0.91762
0.900966
0.885427
0.870111
0.855135
0.840774
0.827226
0.814127
0.801319
0.788942
0.777119
0.765892
0.754981
0.744145
0.73348
0.723039
0.713039
0.703255
0.693358
0.683588
0.674074
0.664871
0.656047
0.647342
0.638565
0.629831
0.62122
0.612798
0.604663
0.596604
0.588424
0.5803
0.572289
0.564465
0.556886
0.549501
0.54208
0.534634
0.527249
0.519905
0.512643
0.505514
0.498533
0.491495
0.484368
0.477377
0.47058
0.464108
0.45781
0.45131
0.44459
0.437606
0.430607
0.424057
0.417829
0.411991
0.406481
0.400347
0.393445
0.385969
0.378996
0.373556
0.369405
0.364793
0.358123
0.349678
0.341844
0.336765
0.333732
0.329726
0.323315
0.314832
0.306738
0.302082
0.299515
0.295279
0.28848
0.28051
0.273678
0.269584
0.266398
0.261234
0.25437
0.247611
0.241923
0.237344
0.232777
0.22761
0.222487
0.217391
0.211771
0.205205
0.198566
0.194346
0.192164
0.188415
0.181575
0.172632
0.16521
0.162443
0.162033
0.158496
0.150727
0.140731
0.132379
0.130019
0.130502
0.127525
0.1204
0.111508
0.10378
0.100809
0.099439
0.0946385
0.0875265
0.0811746
0.0765672
0.0730714
0.0688787
0.0628297
0.0567386
0.0528748
0.0499524
0.0456259
0.0400972
0.034743
0.0303654
0.0271334
0.023999
0.0196931
0.015301
0.0113301
0.00842151
0.0058521
0.000190197
0.00631599
2.68215
1.70394
1.43716
1.41623
1.39388
1.36994
1.34668
1.31615
1.27856
1.23889
1.2007
1.16466
1.1302
1.09873
1.07039
1.04417
1.0197
0.997007
0.975865
0.955545
0.935984
0.917608
0.900972
0.885438
0.870123
0.855149
0.84078
0.827226
0.814133
0.801333
0.788953
0.777118
0.765884
0.754969
0.744131
0.733473
0.723037
0.713034
0.703256
0.693377
0.683611
0.674074
0.664848
0.656022
0.647332
0.63856
0.629812
0.621191
0.612778
0.604664
0.596623
0.588439
0.580299
0.57228
0.564462
0.55689
0.549513
0.542103
0.534654
0.527256
0.519914
0.512661
0.505524
0.498523
0.491475
0.48436
0.477374
0.470559
0.464066
0.45777
0.451312
0.444641
0.437659
0.430626
0.424043
0.417802
0.411995
0.406526
0.40038
0.393441
0.385927
0.378933
0.373534
0.369433
0.364802
0.358062
0.34956
0.341783
0.336824
0.333843
0.329796
0.32333
0.314791
0.306716
0.302142
0.299591
0.29531
0.28848
0.280485
0.273638
0.269565
0.266385
0.261228
0.254397
0.247636
0.241905
0.237303
0.232757
0.227637
0.222534
0.217394
0.211703
0.205143
0.198626
0.194517
0.192287
0.188361
0.181275
0.172272
0.165177
0.162552
0.162122
0.158437
0.150526
0.140622
0.132473
0.130182
0.130608
0.127552
0.120379
0.111473
0.103733
0.100695
0.0993132
0.094655
0.0876951
0.0812399
0.0763957
0.0728713
0.068879
0.0630657
0.0570348
0.0529188
0.0497118
0.0454795
0.0402438
0.0349307
0.0303604
0.0269792
0.0238681
0.0197486
0.0154791
0.0113095
0.008129
0.00563042
0.000189591
0.00631646
2.67587
1.70929
1.43777
1.41612
1.39397
1.36994
1.3467
1.31618
1.27862
1.23882
1.20068
1.16466
1.13024
1.09873
1.07037
1.04414
1.0197
0.997041
0.975887
0.955559
0.935979
0.917589
0.900966
0.885446
0.870128
0.855155
0.840782
0.827229
0.814147
0.801349
0.788968
0.77713
0.765889
0.754956
0.744107
0.733458
0.72304
0.71305
0.703269
0.693387
0.683629
0.674097
0.664846
0.655984
0.647283
0.638536
0.629826
0.621225
0.612809
0.604671
0.596594
0.588397
0.580283
0.572312
0.564528
0.55695
0.549533
0.542077
0.534589
0.52718
0.519868
0.512666
0.505565
0.498561
0.491495
0.484377
0.477402
0.470575
0.464038
0.457699
0.451257
0.444659
0.43772
0.430671
0.424036
0.417746
0.411947
0.406536
0.40042
0.393471
0.385922
0.378888
0.373518
0.369499
0.36488
0.358102
0.349495
0.341625
0.336717
0.333835
0.329877
0.323413
0.314811
0.306734
0.302186
0.299631
0.295352
0.288486
0.280425
0.273566
0.269516
0.266352
0.261244
0.254451
0.247655
0.241866
0.237233
0.232723
0.227687
0.222617
0.217433
0.211641
0.205051
0.198675
0.194663
0.192354
0.188294
0.181067
0.172126
0.165194
0.162708
0.162237
0.158272
0.150298
0.14061
0.132569
0.13035
0.130761
0.127552
0.12037
0.111443
0.103649
0.10053
0.0991709
0.094732
0.0879397
0.0813057
0.0761561
0.0726217
0.0688938
0.0633544
0.0573266
0.0528832
0.049406
0.0453539
0.0404692
0.0351741
0.0303328
0.0267333
0.0236655
0.019816
0.0156987
0.0113067
0.00782948
0.00537795
0.000136188
0.00629708
2.67112
1.71166
1.43897
1.4165
1.39425
1.36998
1.34681
1.31626
1.27863
1.2389
1.20072
1.16466
1.13022
1.09874
1.07041
1.04418
1.01972
0.997049
0.975876
0.955539
0.935956
0.917573
0.900969
0.885459
0.870143
0.855174
0.840799
0.827242
0.814155
0.801354
0.78897
0.77713
0.765889
0.754956
0.744104
0.733449
0.723029
0.713045
0.70327
0.693398
0.683648
0.674107
0.664837
0.655967
0.647268
0.638518
0.629806
0.621211
0.612808
0.604691
0.596633
0.588432
0.580284
0.572275
0.564483
0.556941
0.549565
0.542123
0.534622
0.527191
0.519866
0.512658
0.505555
0.49856
0.491504
0.48438
0.477376
0.470517
0.463983
0.457684
0.451299
0.444721
0.437751
0.430664
0.42402
0.417747
0.411978
0.406574
0.400416
0.393429
0.385873
0.378858
0.373531
0.36956
0.36489
0.358089
0.349458
0.34153
0.336699
0.333913
0.32998
0.323451
0.314761
0.306678
0.302184
0.299683
0.295419
0.288506
0.280383
0.273519
0.269494
0.266356
0.261274
0.254485
0.247654
0.24183
0.237191
0.232712
0.227716
0.222647
0.217419
0.211559
0.204991
0.198755
0.194819
0.192441
0.188226
0.180824
0.171867
0.165191
0.16285
0.162331
0.158126
0.15011
0.140627
0.132681
0.130473
0.130824
0.12751
0.120391
0.111475
0.103586
0.100347
0.0989892
0.0947921
0.0882196
0.0814034
0.0759075
0.0723638
0.0689143
0.0636334
0.057611
0.0528489
0.0490975
0.0452463
0.0407154
0.0353944
0.0302718
0.026515
0.0235259
0.0199289
0.0159181
0.0112743
0.00750755
0.0051467
0.000125055
0.00629306
2.68004
1.70689
1.43711
1.41584
1.39381
1.36981
1.34669
1.31607
1.27852
1.23892
1.2007
1.16462
1.13018
1.09871
1.07037
1.04415
1.0197
0.997046
0.975878
0.955549
0.935971
0.91758
0.90097
0.88545
0.870134
0.855177
0.840806
0.827242
0.814147
0.801346
0.788973
0.777141
0.765896
0.754954
0.744097
0.733446
0.723039
0.713059
0.703272
0.693387
0.683639
0.674113
0.664848
0.655958
0.647231
0.638474
0.629791
0.621226
0.612821
0.604679
0.596604
0.588417
0.580303
0.57232
0.564531
0.556969
0.549564
0.542097
0.534589
0.527171
0.519865
0.512667
0.505564
0.498558
0.491489
0.484375
0.477393
0.470546
0.463995
0.457658
0.451256
0.444709
0.437779
0.430702
0.424027
0.41771
0.411932
0.40656
0.400427
0.393432
0.385858
0.378851
0.37356
0.369651
0.364949
0.35813
0.349471
0.341421
0.336602
0.3339
0.330016
0.323474
0.314755
0.30668
0.302213
0.299725
0.295435
0.288484
0.280347
0.273499
0.269483
0.266337
0.261262
0.254497
0.247667
0.241811
0.237139
0.232677
0.227743
0.222718
0.217459
0.211517
0.204932
0.198775
0.194897
0.19248
0.188149
0.180659
0.171726
0.165262
0.163023
0.162385
0.157966
0.149929
0.140643
0.13283
0.130606
0.130847
0.127447
0.120404
0.11153
0.103594
0.100222
0.0987971
0.0947987
0.088447
0.0814926
0.0757164
0.0721475
0.0689102
0.0638744
0.0578718
0.0527891
0.0487914
0.0451596
0.0409642
0.0356269
0.0302432
0.026272
0.0233219
0.0200168
0.0161268
0.0112474
0.00724023
0.00493406
5.31408e-05
0.00626055
2.67092
1.71181
1.43904
1.41649
1.39425
1.36996
1.34679
1.31624
1.27863
1.23892
1.20074
1.16466
1.13021
1.09872
1.07039
1.04418
1.01973
0.997073
0.975889
0.955543
0.935954
0.91757
0.900969
0.885454
0.87014
0.85519
0.840827
0.827263
0.814158
0.80134
0.78896
0.777133
0.765897
0.754957
0.744093
0.733438
0.723033
0.713059
0.703276
0.693389
0.683633
0.674105
0.664839
0.655951
0.64723
0.638477
0.629798
0.621237
0.612825
0.604678
0.596607
0.588421
0.580299
0.572299
0.564501
0.556953
0.549577
0.542132
0.534625
0.527182
0.519848
0.512644
0.505566
0.498587
0.491518
0.484376
0.477361
0.470507
0.463978
0.457662
0.451262
0.444704
0.437768
0.430711
0.424064
0.417761
0.411967
0.406547
0.400371
0.393377
0.385862
0.378901
0.373623
0.369681
0.364907
0.358104
0.34951
0.341451
0.336624
0.333907
0.330005
0.323468
0.314773
0.306699
0.302208
0.299689
0.2954
0.288484
0.280386
0.273544
0.269491
0.266302
0.261228
0.254506
0.247706
0.241832
0.237116
0.232635
0.227729
0.222743
0.217473
0.211483
0.204887
0.198784
0.194959
0.19252
0.188083
0.180507
0.171592
0.165284
0.163137
0.162425
0.157861
0.149808
0.140709
0.133049
0.130725
0.130746
0.127271
0.120376
0.111654
0.103725
0.100142
0.09852
0.0946868
0.0886613
0.0816829
0.0756266
0.0719167
0.0688001
0.0640351
0.0581697
0.052828
0.0484973
0.0449916
0.0411693
0.0358988
0.0302851
0.0260689
0.0230727
0.0200294
0.0163718
0.0113369
0.00702799
0.00468759
-7.11456e-05
0.00621453
2.67532
1.70984
1.43791
1.41607
1.39395
1.36989
1.34665
1.31613
1.27861
1.23885
1.2007
1.16466
1.13022
1.09869
1.07035
1.04414
1.01972
0.997068
0.975898
0.955558
0.935969
0.917578
0.900966
0.88545
0.870135
0.855174
0.840807
0.82725
0.814158
0.801346
0.788965
0.777138
0.765899
0.754951
0.744088
0.733443
0.723046
0.71308
0.703301
0.693395
0.683607
0.674072
0.664819
0.655951
0.647239
0.638483
0.629797
0.621243
0.612834
0.604675
0.596593
0.58841
0.580311
0.572335
0.564538
0.556967
0.549559
0.542106
0.53462
0.527205
0.519881
0.512644
0.505521
0.498516
0.491462
0.484374
0.477409
0.470567
0.464011
0.457643
0.451213
0.444675
0.437788
0.430761
0.424097
0.417756
0.411924
0.406471
0.400299
0.393353
0.385912
0.379
0.373717
0.369708
0.364844
0.358056
0.349561
0.341552
0.33669
0.333864
0.329881
0.32338
0.314812
0.306817
0.302266
0.299615
0.295277
0.288442
0.28046
0.273646
0.269496
0.266197
0.261137
0.254522
0.247785
0.241868
0.237069
0.232565
0.22773
0.222815
0.217516
0.211443
0.204829
0.198789
0.195007
0.192524
0.187979
0.180351
0.171588
0.16545
0.163312
0.162462
0.157718
0.149641
0.140759
0.133317
0.130871
0.130593
0.127022
0.120326
0.111864
0.103988
0.1001
0.0981574
0.0944676
0.0888479
0.0819636
0.0756457
0.0716697
0.0685836
0.0641496
0.058502
0.0529202
0.0482141
0.0447662
0.0413284
0.0362374
0.0304337
0.0258643
0.0227164
0.0199406
0.0166081
0.0115167
0.00691462
0.00441944
-0.000279977
0.00613569
2.68019
1.70557
1.43746
1.41613
1.39393
1.36991
1.34667
1.31611
1.27856
1.23892
1.20073
1.16465
1.13018
1.0987
1.07037
1.04417
1.01971
0.997049
0.975894
0.955553
0.935975
0.917594
0.900969
0.885443
0.870138
0.855184
0.840822
0.82726
0.814154
0.801343
0.788971
0.77715
0.765909
0.754948
0.744074
0.733428
0.723033
0.713073
0.7033
0.693392
0.683596
0.67406
0.664793
0.655936
0.647244
0.638507
0.629822
0.621253
0.612827
0.604659
0.596573
0.588388
0.580293
0.572332
0.564559
0.557004
0.549589
0.542117
0.534608
0.527179
0.519852
0.512625
0.505535
0.498569
0.491524
0.484408
0.477394
0.470524
0.463968
0.457602
0.45118
0.444664
0.437822
0.430828
0.424149
0.417774
0.411916
0.406458
0.400309
0.393371
0.38591
0.378972
0.373697
0.369712
0.364853
0.358068
0.349585
0.341585
0.336733
0.333898
0.32989
0.323366
0.314803
0.306834
0.302271
0.299565
0.295201
0.2884
0.28049
0.273736
0.269554
0.266169
0.261091
0.254529
0.247833
0.241888
0.237024
0.232505
0.227751
0.222914
0.217561
0.211351
0.20469
0.198753
0.195095
0.192599
0.187904
0.180129
0.17154
0.165599
0.163515
0.16253
0.157591
0.149481
0.140841
0.133652
0.131045
0.130355
0.126655
0.12021
0.112107
0.10436
0.100113
0.0977159
0.0941649
0.0890426
0.0823129
0.0757236
0.0714008
0.0682667
0.0642139
0.058908
0.0530845
0.0478969
0.0444589
0.0414478
0.0366131
0.0306749
0.0257019
0.022278
0.0197751
0.016899
0.0118044
0.00685829
0.00411893
-0.000555696
0.00603347
2.67275
1.71096
1.43878
1.41631
1.39412
1.36988
1.34667
1.31619
1.27863
1.23883
1.20075
1.16466
1.13019
1.09871
1.07036
1.04416
1.01971
0.997041
0.975911
0.955566
0.93599
0.917617
0.900969
0.885429
0.870119
0.855163
0.840823
0.827274
0.81416
0.801334
0.788953
0.777142
0.76592
0.754969
0.744092
0.733443
0.723048
0.713093
0.703328
0.693409
0.683593
0.674067
0.664781
0.655929
0.647241
0.638502
0.62982
0.621261
0.612842
0.604671
0.596583
0.588396
0.580301
0.57233
0.564543
0.556985
0.549584
0.542137
0.534646
0.527219
0.519877
0.512613
0.505483
0.498497
0.491471
0.484404
0.477433
0.470572
0.463985
0.45758
0.451154
0.444658
0.437839
0.430858
0.424165
0.417772
0.41189
0.406398
0.400249
0.393358
0.385959
0.379047
0.373745
0.369686
0.36476
0.358011
0.349629
0.341699
0.336853
0.333933
0.329821
0.323271
0.314759
0.306853
0.302294
0.299516
0.295092
0.288336
0.280533
0.273838
0.269603
0.266117
0.261017
0.25453
0.247901
0.241928
0.236985
0.232435
0.227755
0.223007
0.217621
0.211304
0.2046
0.198717
0.195136
0.192615
0.187789
0.179935
0.171659
0.165789
0.163695
0.162561
0.157441
0.149316
0.140902
0.133968
0.131231
0.130124
0.126259
0.120079
0.112376
0.104767
0.100157
0.0972689
0.093811
0.089198
0.0826992
0.0758745
0.0711506
0.0679318
0.0642547
0.0592808
0.0532447
0.0476094
0.0441591
0.0415838
0.0370585
0.0309367
0.0254714
0.0217837
0.0195942
0.0172047
0.0121622
0.00684892
0.00377319
-0.000877601
0.00592544
2.67586
1.70914
1.43774
1.41611
1.394
1.36997
1.34663
1.31618
1.27862
1.23881
1.20072
1.16468
1.13023
1.09872
1.07035
1.04415
1.01971
0.997052
0.975931
0.955574
0.935991
0.917611
0.900955
0.885424
0.87013
0.85517
0.840823
0.827269
0.814156
0.801344
0.788971
0.77716
0.765932
0.754968
0.744071
0.73341
0.723024
0.713086
0.703327
0.693382
0.68354
0.674017
0.664775
0.655963
0.647292
0.63854
0.629829
0.62125
0.612812
0.604629
0.596555
0.588401
0.580318
0.572324
0.564518
0.556973
0.549604
0.54217
0.534659
0.527202
0.51984
0.51257
0.505459
0.498517
0.491534
0.484478
0.477475
0.470573
0.463944
0.457503
0.451074
0.444609
0.437847
0.430918
0.424228
0.417815
0.41191
0.406405
0.40026
0.393354
0.385916
0.378984
0.373704
0.369696
0.364768
0.358034
0.34966
0.341701
0.336887
0.334002
0.329847
0.323255
0.314726
0.306805
0.302277
0.299504
0.295023
0.288265
0.280544
0.273925
0.269705
0.266161
0.26098
0.254492
0.247913
0.241955
0.236991
0.232408
0.227748
0.223058
0.217637
0.211237
0.204529
0.198695
0.19518
0.192638
0.187603
0.179591
0.171929
0.165917
0.163832
0.162591
0.157332
0.149183
0.140957
0.134238
0.131382
0.129911
0.125916
0.119943
0.11256
0.105108
0.100211
0.0968992
0.0935355
0.0893564
0.0830092
0.0759677
0.0709255
0.0676338
0.0643024
0.0596539
0.0533748
0.0472643
0.0438429
0.0417347
0.0375067
0.0312297
0.0252648
0.0212422
0.0193873
0.0175753
0.0125736
0.00684615
0.00340014
-0.00124526
0.00580546
2.68263
1.70402
1.437
1.41615
1.39383
1.36988
1.34659
1.31611
1.27852
1.23885
1.20072
1.16466
1.13018
1.09871
1.07035
1.04417
1.01971
0.997017
0.975895
0.955558
0.935994
0.917628
0.900973
0.885429
0.870113
0.855131
0.840788
0.827255
0.814149
0.80133
0.788953
0.777154
0.765947
0.754994
0.744086
0.733406
0.723012
0.713071
0.703315
0.693385
0.68356
0.674054
0.664801
0.655966
0.647274
0.638518
0.629826
0.62128
0.612856
0.604651
0.596544
0.588381
0.580309
0.572324
0.564518
0.556976
0.549615
0.54218
0.534655
0.527197
0.519855
0.512598
0.505463
0.498474
0.491469
0.484437
0.477477
0.470603
0.46397
0.457521
0.451104
0.444641
0.437871
0.430917
0.424202
0.417791
0.411887
0.406367
0.40022
0.393326
0.385919
0.379026
0.373754
0.369708
0.364694
0.357965
0.349678
0.341762
0.337
0.334109
0.32982
0.323164
0.314674
0.306776
0.302278
0.299487
0.294904
0.288152
0.280552
0.274018
0.269809
0.266204
0.260927
0.254435
0.247919
0.241983
0.237014
0.232397
0.227721
0.223079
0.217656
0.211237
0.204552
0.198675
0.195119
0.192543
0.187342
0.179062
0.172512
0.166023
0.163908
0.162532
0.157223
0.149154
0.14107
0.134422
0.131407
0.129648
0.125625
0.119921
0.112798
0.105385
0.100206
0.0965563
0.0932999
0.0895233
0.0833117
0.0760621
0.070742
0.0673989
0.0643509
0.059939
0.0534564
0.0469819
0.0436197
0.0419175
0.0379124
0.0314314
0.025007
0.0207872
0.0192808
0.0179276
0.0129248
0.00680174
0.0030115
-0.00156685
0.00573662
2.67714
1.70708
1.43802
1.41651
1.39402
1.36999
1.34664
1.31619
1.27862
1.23881
1.20072
1.1647
1.13025
1.09873
1.07034
1.04415
1.01971
0.997039
0.97593
0.955587
0.936009
0.917627
0.900961
0.885419
0.870111
0.855133
0.840782
0.827234
0.814122
0.80132
0.788969
0.777181
0.765972
0.755005
0.744075
0.733386
0.722996
0.713054
0.703296
0.693376
0.683571
0.674054
0.664817
0.655975
0.64728
0.638535
0.629854
0.621299
0.612856
0.604651
0.596553
0.588387
0.580294
0.572279
0.564462
0.556944
0.549624
0.542214
0.534678
0.527197
0.519848
0.512604
0.505477
0.498486
0.491485
0.484461
0.477511
0.470635
0.463972
0.45748
0.451035
0.444573
0.437837
0.430939
0.424266
0.41787
0.411933
0.406354
0.400173
0.393275
0.385908
0.379044
0.373759
0.369666
0.364604
0.35793
0.34976
0.341873
0.337078
0.334111
0.329728
0.323094
0.31471
0.306826
0.302283
0.299434
0.294787
0.288086
0.280611
0.274116
0.269867
0.266212
0.260889
0.254412
0.247947
0.242021
0.237034
0.232379
0.227676
0.223049
0.217634
0.211252
0.204623
0.1987
0.195071
0.192453
0.187245
0.179316
0.172087
0.166198
0.164031
0.162495
0.15716
0.149182
0.141189
0.134557
0.131408
0.12944
0.125412
0.119893
0.112913
0.105528
0.100202
0.0963688
0.0932033
0.0896683
0.0834719
0.076055
0.0706199
0.0673061
0.0644395
0.0601251
0.053418
0.0466743
0.0434592
0.0421421
0.0382696
0.031582
0.024784
0.0203888
0.0191976
0.0182748
0.0132477
0.00676614
0.00269305
-0.00186536
0.00565244
2.68303
1.70371
1.43699
1.41617
1.39377
1.36988
1.34658
1.31609
1.27851
1.23887
1.20074
1.16468
1.13019
1.09871
1.07035
1.04416
1.01971
0.997019
0.975893
0.955564
0.936003
0.917633
0.900979
0.88543
0.870103
0.855107
0.840747
0.827208
0.814112
0.801324
0.788976
0.777189
0.765984
0.755024
0.744083
0.733371
0.722974
0.713036
0.703286
0.693384
0.683597
0.674074
0.664825
0.655966
0.647271
0.638535
0.629863
0.621315
0.612878
0.604668
0.596546
0.588351
0.58026
0.572275
0.564484
0.556966
0.54963
0.542209
0.534666
0.527189
0.519853
0.512632
0.505505
0.498478
0.491444
0.484407
0.477471
0.47063
0.46399
0.457509
0.451068
0.444589
0.437834
0.430938
0.424276
0.417886
0.411925
0.406297
0.400099
0.393225
0.385917
0.379116
0.373833
0.369685
0.364549
0.357858
0.349767
0.341966
0.33718
0.334155
0.329685
0.323013
0.314694
0.306866
0.302291
0.299369
0.294658
0.287972
0.280606
0.274194
0.269939
0.266241
0.260878
0.254391
0.247952
0.242035
0.237037
0.232371
0.227658
0.223039
0.217642
0.211283
0.204673
0.198709
0.19499
0.192336
0.187207
0.179487
0.171776
0.166437
0.164201
0.162469
0.157139
0.149294
0.141338
0.134607
0.131273
0.129175
0.125253
0.120003
0.113118
0.105625
0.100123
0.0961698
0.0931289
0.0898455
0.0836632
0.0760732
0.0705415
0.0672423
0.0644754
0.0602336
0.053387
0.0464715
0.0433684
0.042296
0.0384747
0.0316456
0.0246292
0.0201629
0.0191959
0.0184998
0.0134269
0.00672849
0.00248167
-0.00205567
0.0056007
2.6772
1.70693
1.43802
1.41657
1.39403
1.37
1.34663
1.31617
1.27863
1.23884
1.20074
1.16472
1.13026
1.09873
1.07035
1.04414
1.01971
0.997042
0.975916
0.955593
0.936019
0.917628
0.900973
0.885433
0.870106
0.855111
0.840727
0.82714
0.814043
0.801292
0.788994
0.777242
0.766039
0.755052
0.744072
0.733334
0.722939
0.71302
0.703278
0.693378
0.683603
0.674094
0.664849
0.655992
0.647298
0.638556
0.62987
0.621314
0.612889
0.6047
0.596585
0.588367
0.580231
0.572215
0.564433
0.556953
0.549647
0.542232
0.534696
0.527226
0.519885
0.512649
0.505494
0.49844
0.491406
0.484393
0.477487
0.470657
0.464008
0.457519
0.451067
0.444571
0.437803
0.43091
0.424272
0.417907
0.411953
0.406316
0.400119
0.393243
0.385916
0.379093
0.373784
0.369629
0.364537
0.357893
0.349841
0.342039
0.337184
0.334109
0.329648
0.322996
0.314714
0.306892
0.302265
0.299318
0.294623
0.287966
0.28063
0.27422
0.269928
0.266221
0.260885
0.254414
0.247986
0.24206
0.237031
0.232346
0.22762
0.222992
0.217635
0.211339
0.204746
0.198736
0.194912
0.192197
0.187147
0.179549
0.171707
0.166574
0.164238
0.162365
0.157107
0.149444
0.141506
0.134638
0.131149
0.128977
0.125157
0.120081
0.113187
0.105577
0.100041
0.0961521
0.0932167
0.0899745
0.0836877
0.0759908
0.0705275
0.0673579
0.0645924
0.0602058
0.0531974
0.0462765
0.0433655
0.0424861
0.0386346
0.0316212
0.0244786
0.0200377
0.0192514
0.0186926
0.0135564
0.00669226
0.00234162
-0.00217432
0.00557501
2.683
1.70366
1.43701
1.41619
1.39376
1.36987
1.34657
1.31607
1.27853
1.23891
1.20076
1.16471
1.13021
1.09871
1.07036
1.04416
1.0197
0.997018
0.975883
0.955584
0.936035
0.917641
0.900971
0.885424
0.870106
0.855111
0.84069
0.827096
0.814039
0.80132
0.789012
0.777231
0.766029
0.755071
0.744095
0.733328
0.722914
0.713001
0.703279
0.693399
0.68362
0.674085
0.664807
0.655955
0.647296
0.638592
0.629917
0.621348
0.612909
0.604706
0.596561
0.58832
0.580182
0.572188
0.564432
0.556956
0.549644
0.542232
0.534716
0.527253
0.519896
0.512647
0.505485
0.498422
0.49138
0.48436
0.477464
0.470656
0.464026
0.457541
0.451078
0.444573
0.437812
0.430942
0.424312
0.417919
0.411919
0.406257
0.400077
0.393239
0.385939
0.379112
0.373788
0.369611
0.364524
0.357887
0.349863
0.342115
0.337242
0.334106
0.329615
0.32295
0.314707
0.306938
0.302282
0.299263
0.294534
0.287879
0.280587
0.274232
0.269958
0.266257
0.260922
0.254418
0.247961
0.242041
0.23703
0.232386
0.227661
0.22297
0.217597
0.211341
0.204777
0.198771
0.194875
0.192069
0.187065
0.179576
0.1717
0.166566
0.164158
0.162257
0.15712
0.149624
0.141657
0.134572
0.130924
0.128789
0.125152
0.120253
0.113287
0.105463
0.0999012
0.0961654
0.0933635
0.0901191
0.0837148
0.0759375
0.0705662
0.0674917
0.0646313
0.0600675
0.0530112
0.0462175
0.0434526
0.0425751
0.0386079
0.0315135
0.0244326
0.020109
0.0193592
0.0187321
0.0135387
0.00668743
0.00234934
-0.00217598
0.0055731
2.67715
1.70694
1.43806
1.41658
1.39403
1.36999
1.34662
1.31616
1.27865
1.23887
1.20075
1.16474
1.13027
1.09872
1.07035
1.04413
1.0197
0.997036
0.975915
0.955611
0.936039
0.917627
0.900959
0.885423
0.870112
0.855115
0.840687
0.82708
0.814022
0.801313
0.789017
0.77724
0.766037
0.755083
0.744113
0.733338
0.722907
0.712989
0.703271
0.693388
0.683604
0.674087
0.664822
0.65598
0.647315
0.638604
0.629919
0.62134
0.612907
0.604726
0.59659
0.588332
0.580181
0.572194
0.564442
0.556947
0.549607
0.54219
0.534714
0.527297
0.51994
0.512663
0.505472
0.4984
0.491357
0.484327
0.47743
0.470647
0.464055
0.457606
0.45114
0.444585
0.437763
0.430869
0.424263
0.417911
0.411938
0.406287
0.400116
0.393282
0.385957
0.379094
0.373752
0.369582
0.364511
0.357905
0.349903
0.342139
0.337245
0.334107
0.329619
0.322963
0.314704
0.306888
0.302217
0.299241
0.294564
0.287928
0.280601
0.274182
0.269902
0.266263
0.260968
0.254454
0.247962
0.242012
0.237021
0.232427
0.227695
0.22295
0.217559
0.211338
0.204811
0.198787
0.194816
0.191939
0.186977
0.1796
0.171867
0.166486
0.16396
0.162097
0.15715
0.149862
0.141832
0.134478
0.130696
0.128649
0.12519
0.120405
0.113294
0.105242
0.0997648
0.0963078
0.0935927
0.0902038
0.0836356
0.0758441
0.0706629
0.0677363
0.0646932
0.0598239
0.0527791
0.0462393
0.0435863
0.0425962
0.0384676
0.031348
0.0244643
0.0203515
0.0195072
0.0186425
0.0134183
0.00672966
0.0024903
-0.00206621
0.00560589
2.68286
1.70364
1.43704
1.41622
1.39381
1.36988
1.34655
1.31609
1.27855
1.23893
1.20078
1.16473
1.13021
1.09872
1.07036
1.04416
1.0197
0.997012
0.975888
0.955583
0.936039
0.917649
0.90097
0.88542
0.870105
0.855101
0.840678
0.827084
0.814013
0.801297
0.789004
0.77723
0.766032
0.755073
0.744103
0.733338
0.722912
0.712998
0.703289
0.693413
0.683634
0.674112
0.664794
0.655943
0.647303
0.638618
0.629935
0.621339
0.612892
0.6047
0.596548
0.588277
0.580141
0.572195
0.564467
0.556959
0.549595
0.542172
0.53472
0.527335
0.519983
0.512696
0.50549
0.498393
0.491328
0.484289
0.477404
0.470642
0.46406
0.457611
0.451141
0.444595
0.437792
0.430904
0.424275
0.417881
0.411889
0.406263
0.400131
0.393311
0.385963
0.379073
0.373732
0.369584
0.364495
0.357889
0.349917
0.342155
0.337281
0.334143
0.329596
0.322925
0.314697
0.306886
0.30223
0.299252
0.294523
0.287871
0.280551
0.27414
0.269916
0.266338
0.261023
0.254442
0.247906
0.241958
0.237054
0.232543
0.227765
0.22291
0.217455
0.211277
0.204839
0.198822
0.194789
0.191838
0.186872
0.179635
0.172216
0.166387
0.16373
0.161969
0.157201
0.150053
0.141916
0.134275
0.130426
0.128604
0.125356
0.120588
0.113245
0.104949
0.0996313
0.0965521
0.0939109
0.0902591
0.0834856
0.0757628
0.0708185
0.0679704
0.0646479
0.059477
0.0525757
0.0464283
0.0438251
0.0425115
0.0381377
0.0311222
0.0246105
0.0207493
0.0196746
0.0184311
0.0131909
0.00680106
0.00276459
-0.00185402
0.0056731
2.67703
1.70712
1.4381
1.41652
1.39403
1.36998
1.34657
1.31616
1.27867
1.23887
1.20078
1.16475
1.13026
1.09873
1.07034
1.04414
1.0197
0.997034
0.975925
0.955595
0.936033
0.917646
0.900974
0.88542
0.87009
0.855089
0.840702
0.827114
0.814
0.801259
0.788992
0.777256
0.766049
0.755057
0.744091
0.733353
0.722931
0.713007
0.703286
0.693394
0.683607
0.674085
0.664808
0.655981
0.647349
0.638648
0.629935
0.621315
0.612875
0.604722
0.596599
0.588322
0.580159
0.572192
0.564445
0.556923
0.549561
0.542153
0.534722
0.527346
0.519984
0.512689
0.505486
0.49839
0.491321
0.484277
0.477403
0.470657
0.46408
0.457628
0.45115
0.444587
0.437769
0.430873
0.424257
0.417885
0.411907
0.406281
0.400139
0.393308
0.385959
0.379073
0.373741
0.369599
0.364484
0.357884
0.349925
0.342131
0.337273
0.334179
0.329634
0.322957
0.314677
0.306768
0.302121
0.299251
0.294595
0.28796
0.280571
0.274057
0.269847
0.266373
0.261085
0.254446
0.247857
0.241908
0.237088
0.232648
0.227812
0.222854
0.217373
0.211266
0.20489
0.19883
0.194729
0.191749
0.186797
0.179699
0.172694
0.166247
0.163457
0.161855
0.157314
0.150317
0.142005
0.134001
0.130137
0.128611
0.125571
0.120767
0.113125
0.104573
0.0995003
0.0968699
0.0942346
0.0902436
0.0833012
0.0757182
0.0710247
0.068207
0.0645477
0.0590734
0.0524278
0.0467512
0.0440725
0.0422901
0.0376915
0.0309037
0.0248848
0.0213044
0.0198346
0.0180314
0.0128607
0.00697234
0.00319582
-0.0015559
0.00575595
2.68184
1.70404
1.4374
1.41634
1.39389
1.3699
1.34652
1.31609
1.27858
1.23894
1.20082
1.16473
1.1302
1.09872
1.07035
1.04416
1.0197
0.997014
0.975902
0.955568
0.936013
0.917645
0.900987
0.885434
0.870092
0.855082
0.84072
0.827162
0.81403
0.801239
0.788938
0.777207
0.766029
0.755046
0.744075
0.733351
0.722953
0.713035
0.703307
0.693412
0.68363
0.674122
0.664833
0.655966
0.647303
0.638602
0.629913
0.621317
0.612876
0.6047
0.596551
0.588267
0.580138
0.572216
0.564477
0.556928
0.549541
0.542131
0.534722
0.527372
0.520016
0.512708
0.505485
0.498381
0.491311
0.484265
0.4774
0.470665
0.46409
0.457641
0.45117
0.444615
0.437792
0.430861
0.424208
0.41784
0.411897
0.406302
0.400158
0.393286
0.385914
0.379049
0.373755
0.369636
0.364486
0.357847
0.349882
0.342101
0.337283
0.334218
0.32965
0.322944
0.314661
0.306749
0.302128
0.29928
0.294601
0.287926
0.280506
0.274
0.269861
0.266463
0.26115
0.254408
0.247769
0.241878
0.237176
0.232793
0.227863
0.222757
0.217245
0.211228
0.204934
0.198854
0.19469
0.19168
0.186742
0.179543
0.17318
0.16615
0.163285
0.161799
0.157416
0.1505
0.141992
0.133654
0.129849
0.12872
0.125876
0.120919
0.112924
0.104205
0.0994678
0.0973046
0.09459
0.0901315
0.0830165
0.0756938
0.0712916
0.0684157
0.0643411
0.0586088
0.0523444
0.0472197
0.0443854
0.0419667
0.0370901
0.0306755
0.0253198
0.0219737
0.0199489
0.0175199
0.0124728
0.00719528
0.00375956
-0.00117384
0.00585794
2.677
1.70713
1.43813
1.41655
1.39405
1.36997
1.34651
1.31614
1.27867
1.23888
1.20081
1.16476
1.13025
1.09873
1.07032
1.04413
1.0197
0.997028
0.975936
0.955594
0.936009
0.917629
0.900975
0.885427
0.870082
0.855081
0.840747
0.827175
0.813996
0.801183
0.788912
0.777238
0.766091
0.755092
0.744095
0.733354
0.722949
0.713034
0.703308
0.693397
0.683596
0.674072
0.664832
0.656001
0.647322
0.638591
0.629914
0.621356
0.612928
0.604727
0.596552
0.588271
0.580154
0.572231
0.564473
0.556907
0.549522
0.542114
0.5347
0.527343
0.519997
0.512713
0.505504
0.498394
0.491307
0.484251
0.477406
0.470697
0.464124
0.457653
0.451142
0.444559
0.437748
0.43086
0.424249
0.417896
0.411919
0.406273
0.400106
0.393237
0.385894
0.379057
0.373783
0.369685
0.364529
0.357855
0.349846
0.342032
0.337234
0.334237
0.32971
0.322983
0.314631
0.306663
0.302068
0.299307
0.294675
0.287969
0.280494
0.273966
0.269868
0.26652
0.261171
0.254333
0.247679
0.241871
0.237263
0.232892
0.227857
0.222645
0.21718
0.211286
0.205014
0.19884
0.194597
0.191643
0.186922
0.179999
0.172762
0.166154
0.163225
0.161847
0.157631
0.150754
0.141955
0.133245
0.12956
0.128882
0.126221
0.121077
0.11271
0.103835
0.0994373
0.0977133
0.0948739
0.0899682
0.0827905
0.075776
0.0715655
0.0685198
0.0640342
0.0581374
0.0523749
0.0478234
0.0446839
0.0414889
0.0364317
0.0305229
0.0258382
0.0226899
0.0200132
0.0168701
0.0120565
0.00752024
0.00437768
-0.000810688
0.00595099
2.68277
1.70365
1.43706
1.41623
1.39386
1.36988
1.34646
1.31607
1.27857
1.23894
1.20083
1.16475
1.1302
1.09872
1.07033
1.04416
1.0197
0.997007
0.975904
0.95556
0.935993
0.91764
0.900994
0.885441
0.870099
0.855085
0.840738
0.827193
0.814047
0.801234
0.788907
0.777156
0.765978
0.755019
0.744079
0.733373
0.722995
0.713093
0.70336
0.693414
0.683577
0.674045
0.664857
0.656061
0.647362
0.638578
0.629862
0.621286
0.612854
0.604665
0.596532
0.588305
0.580212
0.57227
0.564469
0.556873
0.549496
0.542108
0.534706
0.527349
0.520001
0.512719
0.505507
0.498392
0.491296
0.484235
0.477401
0.470707
0.464144
0.457681
0.451167
0.444571
0.437751
0.430844
0.42422
0.417879
0.411916
0.406276
0.400094
0.393185
0.385831
0.379044
0.373835
0.369766
0.364575
0.357809
0.349744
0.341969
0.33724
0.334285
0.329746
0.322961
0.314568
0.30663
0.302087
0.29935
0.294706
0.287953
0.280458
0.273969
0.269913
0.266568
0.261162
0.254247
0.247613
0.241917
0.237389
0.232992
0.227831
0.222517
0.217101
0.211321
0.205074
0.198839
0.19454
0.191647
0.187134
0.180295
0.172452
0.166265
0.163308
0.161951
0.157806
0.150911
0.141873
0.132904
0.129337
0.12904
0.12651
0.12116
0.112511
0.103602